
                                 *****************
                                 * O   R   C   A *
                                 *****************

                                            #,                                       
                                            ###                                      
                                            ####                                     
                                            #####                                    
                                            ######                                   
                                           ########,                                 
                                     ,,################,,,,,                         
                               ,,#################################,,                 
                          ,,##########################################,,             
                       ,#########################################, ''#####,          
                    ,#############################################,,   '####,        
                  ,##################################################,,,,####,       
                ,###########''''           ''''###############################       
              ,#####''   ,,,,##########,,,,          '''####'''          '####       
            ,##' ,,,,###########################,,,                        '##       
           ' ,,###''''                  '''############,,,                           
         ,,##''                                '''############,,,,        ,,,,,,###''
      ,#''                                            '''#######################'''  
     '                                                          ''''####''''         
             ,#######,   #######,   ,#######,      ##                                
            ,#'     '#,  ##    ##  ,#'     '#,    #''#        ,####,   ,####,        
            ##       ##  ##   ,#'  ##            #'  '#       #'       #'  '#        
            ##       ##  #######   ##           ,######,      #####,   #    #        
            '#,     ,#'  ##    ##  '#,     ,#' ,#      #,     #,   #   #,  ,#        
             '#######'   ##     ##  '#######'  #'      '#     '####' # '####'        



                #########################################################
                #                        -***-                          #
                #          Department of theory and spectroscopy        #
                #                                                       #
                #                      Frank Neese                      #
                #                                                       #
                #     Directorship, Architecture, Infrastructure        #
                #                    SHARK, DRIVERS                     #
                #        Core code/Algorithms in most modules           #
                #                                                       #
                #        Max Planck Institute fuer Kohlenforschung      #
                #                Kaiser Wilhelm Platz 1                 #
                #                 D-45470 Muelheim/Ruhr                 #
                #                      Germany                          #
                #                                                       #
                #                  All rights reserved                  #
                #                        -***-                          #
                #########################################################


                         Program Version 6.0.1  -  RELEASE   -


 With contributions from (in alphabetic order):
[Max-Planck-Institut fuer Kohlenforschung]                               
  Daniel Aravena         : Magnetic Suceptibility                        
  Michael Atanasov       : Ab Initio Ligand Field Theory (pilot matlab implementation)
  Alexander A. Auer      : GIAO ZORA, VPT2 properties, NMR spectrum      
  Ute Becker             : All parallelization in ORCA, NUMFREQ, NUMCALC 
  Giovanni Bistoni       : ED, misc. LED, open-shell LED, HFLD           
  Martin Brehm           : Molecular dynamics                            
  Dmytro Bykov           : pre 5.0 version of the SCF Hessian            
  Marcos Casanova-Páez   : Triplet and SCS-CIS(D). UHF-(DLPNO)-IP/EA/STEOM-CCSD. UHF-CVS-IP/STEOM-CCSD   
  Vijay G. Chilkuri      : MRCI spin determinant printing, contributions to CSF-ICE 
  Pauline Colinet        : FMM embedding                                 
  Dipayan Datta          : RHF DLPNO-CCSD density                        
  Achintya Kumar Dutta   : EOM-CC, STEOM-CC                              
  Nicolas Foglia         : Exact transition moments, OPA infrastructure, MCD improvements    
  Dmitry Ganyushin       : Spin-Orbit,Spin-Spin,Magnetic field MRCI      
  Miquel Garcia-Rates    : C-PCM and meta-GGA Hessian, CCSD/C-PCM, Gaussian charge scheme 
  Tiago L. C. Gouveia    : GS-ROHF, GS-ROCIS                             
  Yang Guo               : DLPNO-NEVPT2, F12-NEVPT2, CIM, IAO-localization        
  Andreas Hansen         : Spin unrestricted coupled pair/coupled cluster methods 
  Ingolf Harden          : AUTO-CI MPn and infrastructure                
  Benjamin Helmich-Paris : MC-RPA, TRAH-(SCF,CASSCF), AVAS, COSX integrals, SCF dyn. polar. 
  Lee Huntington         : MR-EOM, pCC                                   
  Robert Izsak           : Overlap fitted RIJCOSX, COSX-SCS-MP3, EOM     
  Riya Kayal             : Wick's Theorem for AUTO-CI, AUTO-CI UHF-CCSDT 
  Emily Kempfer          : AUTO-CI, RHF CISDT and CCSDT                  
  Christian Kollmar      : KDIIS, OOCD, Brueckner-CCSD(T), CCSD density, CASPT2, CASPT2-K, improved NEVPT2 
  Axel Koslowski         : Symmetry handling                             
  Simone Kossmann        : meta-GGA functionals, TD-DFT gradient, OOMP2, (MP2 Hessian; deprecated post 5.0) 
  Lucas Lang             : DCDCAS                                        
  Marvin Lechner         : AUTO-CI (C++ implementation), FIC-MRCC        
  Spencer Leger          : CASSCF response                               
  Dagmar Lenk            : GEPOL surface, SMD, ORCA-2-JSON               
  Dimitrios Liakos       : Extrapolation schemes; Compound Job, initial MDCI parallelization 
  Dimitrios Manganas     : Further ROCIS development; embedding schemes. LFT, Crystal Embedding 
  Dimitrios Pantazis     : SARC Basis sets                               
  Anastasios Papadopoulos: AUTO-CI, single reference methods and gradients 
  Taras Petrenko         : pre 6.0 DFT Hessian and TD-DFT gradient, (ASA, deprecated), ECA, 1-Electron XAS/XES, NRVS 
  Peter Pinski           : DLPNO-MP2, DLPNO-MP2 Gradient                 
  Christoph Reimann      : Effective Core Potentials                     
  Marius Retegan         : Local ZFS, SOC                                
  Christoph Riplinger    : Optimizer, TS searches, QM/MM, DLPNO-CCSD(T), (RO)-DLPNO pert. Triples 
  Michael Roemelt        : Original ROCIS implementation                 
  Masaaki Saitow         : Open-shell DLPNO-CCSD energy and density      
  Barbara Sandhoefer     : DKH picture change effects                    
  Kantharuban Sivalingam : CASSCF convergence/infrastructure, NEVPT2 and variants, FIC-MRCI 
  Bernardo de Souza      : ESD, SOC TD-DFT                               
  Georgi L. Stoychev     : AutoAux, RI-MP2 NMR, DLPNO-MP2 response, X2C  
  Van Anh Tran           : RI-MP2 g-tensors                              
  Willem Van den Heuvel  : Paramagnetic NMR                              
  Zikuan Wang            : NOTCH, Electric field optimization            
  Frank Wennmohs         : Technical directorship and infrastructure     
  Hang Xu                : AUTO-CI-Response properties                   
                                                                         
[FACCTs GmbH]                                                            
  Markus Bursch, Miquel Garcia-Rates, Christoph Riplinger, Bernardo de Souza, Georgi L. Stoychev 
                                                                 
  APM, Basis sets (HGBS, AHGBS, def-TZVP (Ac-Lr), def2-XVPD (La-Lu)), CI-OPT, improved COSX, DLPNO-Multilevel,           
  DOCKER, DRACO, updates on ESD, GOAT, IRC, LR-CPCM, MBIS, meta-GGA TD-DFT gradient, ML-optimized integration grids, 
  MM, NACMEs, nearIR, NEB, NEB-TS, NL-DFT gradient (VV10), 2- and 3-layer-ONIOM, interface openCOSMO-RS, QMMM,   
  Crystal-QMMM, SF, symmetry and pop. for TD-DFT, r2SCAN hybrids, SOLVATOR                                   
                                                                         
[Other institutions]                                                     
  V. Asgeirsson          : NEB                                           
  Christoph Bannwarth    : sTDA-DFT, sTD-DFT, PBEh-3c, B97-3c, D3        
  Sebastian Ehlert       : rSCAN, r2SCAN, r2SCAN-3c, D4, dhf basis sets  
  Marvin Friede          : D4 for Fr, Ra, Ac-Lr                          
  Lars Goerigk           : TD-DFT with DH, B97 family of functionals     
  Stefan Grimme          : VdW corrections, initial TS optimization, DFT functionals, gCP, sTDA/sTD-DF 
  Waldemar Hujo          : DFT-NL                                        
  H. Jonsson             : NEB                                           
  Holger Kruse           : gCP                                           
  Marcel Mueller         : wB97X-3c, vDZP basis set                      
  Hagen Neugebauer       : wr2SCAN                                       
  Tobias Risthaus        : range-separated hybrid DFT                    
  Lukas Wittmann         : regularized MP2, r2SCAN double-hybrids, wr2SCAN        
                                                                         
We gratefully acknowledge several colleagues who have allowed us to      
interface, adapt or use parts of their codes:                            
  Ed Valeev, F. Pavosevic, A. Kumar             : LibInt (2-el integral package), F12 methods 
  Garnet Chan, S. Sharma, J. Yang, R. Olivares  : DMRG                   
  Ulf Ekstrom                                   : XCFun DFT Library      
  Mihaly Kallay                                 : mrcc  (arbitrary order and MRCC methods)
  Frank Weinhold                                : gennbo (NPA and NBO analysis)           
  Simon Mueller                                 : openCOSMO-RS                            
  Christopher J. Cramer and Donald G. Truhlar   : smd solvation model                     
  S Lehtola, MJT Oliveira, MAL Marques          : LibXC Library                           
  Liviu Ungur et al                             : ANISO software                          


 Your calculation uses the libint2 library for the computation of 2-el integrals
 For citations please refer to: http://libint.valeyev.net

 Your ORCA version has been built with support for libXC version: 6.2.2
 For citations please refer to: https://libxc.gitlab.io

 This ORCA versions uses:
   CBLAS   interface :  Fast vector & matrix operations
   LAPACKE interface :  Fast linear algebra routines
   SCALAPACK package :  Parallel linear algebra routines
   Shared memory     :  Shared parallel matrices
   BLAS/LAPACK       :  OpenBLAS 0.3.27  USE64BITINT DYNAMIC_ARCH NO_AFFINITY Haswell SINGLE_THREADED
        Core in use  :  Haswell
   Copyright (c) 2011-2014, The OpenBLAS Project


Your calculation utilizes the atom-pairwise dispersion correction
based on EEQ partial charges (D4)


Warning: RI is on but no J-basis has been assigned. Assigning Def2/J (nothing to worry about!)
================================================================================

----- Orbital basis set information -----
Your calculation utilizes the basis: def2-SVP
   F. Weigend and R. Ahlrichs, Phys. Chem. Chem. Phys. 7, 3297 (2005).

----- AuxJ basis set information -----
Your calculation utilizes the auxiliary basis: def2/J
   F. Weigend, Phys. Chem. Chem. Phys. 8, 1057 (2006).

================================================================================
                                        WARNINGS
                       Please study these warnings very carefully!
================================================================================

WARNING: Old DensityContainer found on disk!
         Will remove this file - 
         If you want to keep old densities, please start your calculation with a different basename. 


================================================================================
                                       INPUT FILE
================================================================================
NAME = acetic_acid.inp
|  1>  !B3LYP D4 DEF2-SVP FREQ
|  2> * XYZ 0 1
|  3> C         -0.81589       -0.51571       -0.02512
|  4> C          0.30690        0.49327       -0.06114
|  5> H         -0.42809       -1.56713       -0.28060
|  6> H         -1.26914       -0.51520        1.06962
|  7> H         -1.64631       -0.14518       -0.75104
|  8> O          0.16587        1.68279       -0.21470
|  9> O          1.51380       -0.07303        0.21899
| 10> H          2.16801        0.64625        0.13143
| 11> *
| 12> 
| 13>                          ****END OF INPUT****
================================================================================

                       ****************************
                       * Single Point Calculation *
                       ****************************

---------------------------------
CARTESIAN COORDINATES (ANGSTROEM)
---------------------------------
  C     -0.815890   -0.515710   -0.025120
  C      0.306900    0.493270   -0.061140
  H     -0.428090   -1.567130   -0.280600
  H     -1.269140   -0.515200    1.069620
  H     -1.646310   -0.145180   -0.751040
  O      0.165870    1.682790   -0.214700
  O      1.513800   -0.073030    0.218990
  H      2.168010    0.646250    0.131430

----------------------------
CARTESIAN COORDINATES (A.U.)
----------------------------
  NO LB      ZA    FRAG     MASS         X           Y           Z
   0 C     6.0000    0    12.011   -1.541809   -0.974551   -0.047470
   1 C     6.0000    0    12.011    0.579957    0.932145   -0.115538
   2 H     1.0000    0     1.008   -0.808973   -2.961447   -0.530257
   3 H     1.0000    0     1.008   -2.398327   -0.973587    2.021289
   4 H     1.0000    0     1.008   -3.111075   -0.274350   -1.419260
   5 O     8.0000    0    15.999    0.313449    3.180012   -0.405724
   6 O     8.0000    0    15.999    2.860667   -0.138007    0.413831
   7 H     1.0000    0     1.008    4.096945    1.221236    0.248367

--------------------------------
INTERNAL COORDINATES (ANGSTROEM)
--------------------------------
 C      0   0   0     0.000000000000     0.00000000     0.00000000
 C      1   0   0     1.509965385332     0.00000000     0.00000000
 H      1   2   0     1.149409799332   110.79748425     0.00000000
 H      1   2   3     1.184859270209   107.83041301   119.89409690
 H      1   2   3     1.163550473207   107.63908507   235.77974191
 O      2   1   3     1.207653909405   125.05603886   157.73730030
 O      2   1   3     1.362268738869   112.09201308   332.31039900
 H      7   2   1     0.976228045131   105.60345240   177.55784304

---------------------------
INTERNAL COORDINATES (A.U.)
---------------------------
 C      0   0   0     0.000000000000     0.00000000     0.00000000
 C      1   0   0     2.853421049978     0.00000000     0.00000000
 H      1   2   0     2.172069736383   110.79748425     0.00000000
 H      1   2   3     2.239059527933   107.83041301   119.89409690
 H      1   2   3     2.198791737356   107.63908507   235.77974191
 O      2   1   3     2.282135153334   125.05603886   157.73730030
 O      2   1   3     2.574314837265   112.09201308   332.31039900
 H      7   2   1     1.844803649551   105.60345240   177.55784304

---------------------
BASIS SET INFORMATION
---------------------
There are 3 groups of distinct atoms

 Group   1 Type C   : 7s4p1d contracted to 3s2p1d pattern {511/31/1}
 Group   2 Type H   : 4s1p contracted to 2s1p pattern {31/1}
 Group   3 Type O   : 7s4p1d contracted to 3s2p1d pattern {511/31/1}

Atom   0C    basis set group =>   1
Atom   1C    basis set group =>   1
Atom   2H    basis set group =>   2
Atom   3H    basis set group =>   2
Atom   4H    basis set group =>   2
Atom   5O    basis set group =>   3
Atom   6O    basis set group =>   3
Atom   7H    basis set group =>   2
---------------------------------
AUXILIARY/J BASIS SET INFORMATION
---------------------------------
There are 3 groups of distinct atoms

 Group   1 Type C   : 12s5p4d2f1g contracted to 6s4p3d1f1g pattern {711111/2111/211/2/1}
 Group   2 Type H   : 5s2p1d contracted to 3s1p1d pattern {311/2/1}
 Group   3 Type O   : 12s5p4d2f1g contracted to 6s4p3d1f1g pattern {711111/2111/211/2/1}

Atom   0C    basis set group =>   1
Atom   1C    basis set group =>   1
Atom   2H    basis set group =>   2
Atom   3H    basis set group =>   2
Atom   4H    basis set group =>   2
Atom   5O    basis set group =>   3
Atom   6O    basis set group =>   3
Atom   7H    basis set group =>   2

Checking for AutoStart:
The File: acetic_acid.gbw exists
Trying to determine its content:
     ... Fine, the file contains calculation information
     ... Fine, the calculation information was read
     ... Fine, the file contains a basis set
     ... Fine, the basis set was read
     ... Fine, the file contains a geometry
     ... Fine, the geometry was read
     ... Fine, the file contains a set of orbitals
     ... Fine, the orbitals can be read
     => possible old guess file was deleted
     => GBW file was renamed to GES file
     => GES file is set as startup file
     => Guess is set to MORead
     ... now leaving AutoStart

------------------------------------------------------------------------------
                             ORCA STARTUP CALCULATIONS
                           -- RI-GTO INTEGRALS CHOSEN --
------------------------------------------------------------------------------
------------------------------------------------------------------------------
                   ___                                                        
                  /   \      - P O W E R E D   B Y -                         
                 /     \                                                     
                 |  |  |   _    _      __       _____    __    __             
                 |  |  |  | |  | |    /  \     |  _  \  |  |  /  |          
                  \  \/   | |  | |   /    \    | | | |  |  | /  /          
                 / \  \   | |__| |  /  /\  \   | |_| |  |  |/  /          
                |  |  |   |  __  | /  /__\  \  |    /   |      \           
                |  |  |   | |  | | |   __   |  |    \   |  |\   \          
                \     /   | |  | | |  |  |  |  | |\  \  |  | \   \       
                 \___/    |_|  |_| |__|  |__|  |_| \__\ |__|  \__/        
                                                                              
                      - O R C A' S   B I G   F R I E N D -                    
                                      &                                       
                       - I N T E G R A L  F E E D E R -                       
                                                                              
 v1 FN, 2020, v2 2021, v3 2022-2024                                           
------------------------------------------------------------------------------


----------------------
SHARK INTEGRAL PACKAGE
----------------------

Number of atoms                             ...      8
Number of basis functions                   ...     76
Number of shells                            ...     36
Maximum angular momentum                    ...      2
Integral batch strategy                     ... SHARK/LIBINT Hybrid
RI-J (if used) integral strategy            ... SPLIT-RIJ (Revised 2003 algorithm where possible)
Printlevel                                  ...      1
Contraction scheme used                     ... SEGMENTED contraction
Prescreening option                         ... SCHWARTZ
   Thresh                                   ... 1.000e-10
   Tcut                                     ... 1.000e-11
   Tpresel                                  ... 1.000e-11 
Coulomb Range Separation                    ... NOT USED
Exchange Range Separation                   ... NOT USED
Multipole approximations                    ... NOT USED
Finite Nucleus Model                        ... NOT USED
CABS basis                                  ... NOT available
Auxiliary Coulomb fitting basis             ... AVAILABLE
   # of basis functions in Aux-J            ...    240
   # of shells in Aux-J                     ...     80
   Maximum angular momentum in Aux-J        ...      4
Auxiliary J/K fitting basis                 ... NOT available
Auxiliary Correlation fitting basis         ... NOT available
Auxiliary 'external' fitting basis          ... NOT available

Checking pre-screening integrals            ... done (  0.0 sec) Dimension = 36
Check shell pair data                       ... done (  0.0 sec)
Shell pair information
Shell pair cut-off parameter TPreSel        ...   1.0e-11
Total number of shell pairs                 ...       666
Shell pairs after pre-screening             ...       661
Total number of primitive shell pairs       ...      2410
Primitive shell pairs kept                  ...      1954
          la=0 lb=0:    207 shell pairs
          la=1 lb=0:    238 shell pairs
          la=1 lb=1:     78 shell pairs
          la=2 lb=0:     80 shell pairs
          la=2 lb=1:     48 shell pairs
          la=2 lb=2:     10 shell pairs

Calculating one electron integrals          ... done (  0.0 sec)
Calculating RI/J V-Matrix + Cholesky decomp.... done (  0.0 sec)
Calculating Nuclear repulsion               ... done (  0.0 sec) ENN=    119.897639148008 Eh

Diagonalization of the overlap matrix:
Smallest eigenvalue                        ... 3.714e-03
Time for diagonalization                   ...    0.001 sec
Threshold for overlap eigenvalues          ... 1.000e-07
Number of eigenvalues below threshold      ... 0
Time for construction of square roots      ...    0.000 sec
Total time needed                          ...    0.001 sec

-------------------
DFT GRID GENERATION
-------------------

General Integration Accuracy     IntAcc      ... 4.388
Radial Grid Type                 RadialGrid  ... OptM3 with GC (2021)
Angular Grid (max. ang.)         AngularGrid ... 4 (Lebedev-302)
Angular grid pruning method      GridPruning ... 4 (adaptive)
Weight generation scheme         WeightScheme... mBecke (2022)
Basis function cutoff            BFCut       ... 1.0000e-10
Integration weight cutoff        WCut        ... 1.0000e-14
Partially contracted basis set               ... off
Rotationally invariant grid construction     ... off
Angular grids for H and He will be reduced by one unit

Total number of grid points                  ...    37431
Total number of batches                      ...      590
Average number of points per batch           ...       63
Average number of grid points per atom       ...     4679

--------------------
COSX GRID GENERATION
--------------------

GRIDX 1
-------
General Integration Accuracy     IntAcc      ... 3.816
Radial Grid Type                 RadialGrid  ... OptM3 with GC (2021)
Angular Grid (max. ang.)         AngularGrid ... 1 (Lebedev-50)
Angular grid pruning method      GridPruning ... 4 (adaptive)
Weight generation scheme         WeightScheme... mBecke (2022)
Basis function cutoff            BFCut       ... 1.0000e-10
Integration weight cutoff        WCut        ... 1.0000e-14
Partially contracted basis set               ... on
Rotationally invariant grid construction     ... off
Angular grids for H and He will be reduced by one unit

Total number of grid points                  ...     4797
Total number of batches                      ...       42
Average number of points per batch           ...      114
Average number of grid points per atom       ...      600
UseSFitting                                  ... on

GRIDX 2
-------
General Integration Accuracy     IntAcc      ... 4.020
Radial Grid Type                 RadialGrid  ... OptM3 with GC (2021)
Angular Grid (max. ang.)         AngularGrid ... 2 (Lebedev-110)
Angular grid pruning method      GridPruning ... 4 (adaptive)
Weight generation scheme         WeightScheme... mBecke (2022)
Basis function cutoff            BFCut       ... 1.0000e-10
Integration weight cutoff        WCut        ... 1.0000e-14
Partially contracted basis set               ... on
Rotationally invariant grid construction     ... off
Angular grids for H and He will be reduced by one unit

Total number of grid points                  ...    10554
Total number of batches                      ...       86
Average number of points per batch           ...      122
Average number of grid points per atom       ...     1319
UseSFitting                                  ... on

GRIDX 3
-------
General Integration Accuracy     IntAcc      ... 4.338
Radial Grid Type                 RadialGrid  ... OptM3 with GC (2021)
Angular Grid (max. ang.)         AngularGrid ... 3 (Lebedev-194)
Angular grid pruning method      GridPruning ... 4 (adaptive)
Weight generation scheme         WeightScheme... mBecke (2022)
Basis function cutoff            BFCut       ... 1.0000e-10
Integration weight cutoff        WCut        ... 1.0000e-14
Partially contracted basis set               ... on
Rotationally invariant grid construction     ... off
Angular grids for H and He will be reduced by one unit

Total number of grid points                  ...    23305
Total number of batches                      ...      185
Average number of points per batch           ...      125
Average number of grid points per atom       ...     2913
UseSFitting                                  ... on
Initializing property integral containers    ... done (  0.0 sec)

SHARK setup successfully completed in   0.4 seconds

Maximum memory used throughout the entire STARTUP-calculation: 16.0 MB
-------------------------------------------------------------------------------
                                 ORCA GUESS
                   Start orbitals & Density for SCF / CASSCF
-------------------------------------------------------------------------------

------------
SCF SETTINGS
------------
Hamiltonian:
 Density Functional     Method          .... DFT(GTOs)
 Exchange Functional    Exchange        .... B88
   X-Alpha parameter    XAlpha          ....  0.666667
   Becke's b parameter  XBeta           ....  0.004200
 Correlation Functional Correlation     .... LYP
 LDA part of GGA corr.  LDAOpt          .... VWN-5
 Gradients option       PostSCFGGA      .... off
 Hybrid DFT is turned on
   Fraction HF Exchange ScalHFX         ....  0.200000
   Scaling of DF-GGA-X  ScalDFX         ....  0.720000
   Scaling of DF-GGA-C  ScalDFC         ....  0.810000
   Scaling of DF-LDA-C  ScalLDAC        ....  1.000000
   Perturbative correction              ....  0.000000
   NL short-range parameter             ....  4.800000
 RI-approximation to the Coulomb term is turned on
   Number of AuxJ basis functions       .... 240
   RIJ-COSX (HFX calculated with COS-X)).... on


General Settings:
 Integral files         IntName         .... acetic_acid
 Hartree-Fock type      HFTyp           .... RHF
 Total Charge           Charge          ....    0
 Multiplicity           Mult            ....    1
 Number of Electrons    NEL             ....   32
 Basis Dimension        Dim             ....   76
 Nuclear Repulsion      ENuc            ....    119.8976391480 Eh

Convergence Acceleration:
 AO-DIIS                CNVDIIS         .... on
   Start iteration      DIISMaxIt       ....    12
   Startup error        DIISStart       ....  0.200000
   # of expansion vecs  DIISMaxEq       ....     5
   Bias factor          DIISBfac        ....   1.050
   Max. coefficient     DIISMaxC        ....  10.000
 MO-DIIS                CNVKDIIS        .... off
 Trust-Rad. Augm. Hess. CNVTRAH         .... auto
   Auto Start mean grad. ratio tolernc. ....  1.125000
   Auto Start start iteration           ....     1
   Auto Start num. interpolation iter.  ....    10
   Max. Number of Micro iterations      ....    24
   Max. Number of Macro iterations      .... Maxiter - #DIIS iter
   Number of Davidson start vectors     ....     2
   Converg. threshold    (grad. norm)   ....   5.000e-05
   Grad. Scal. Fac. for Micro threshold ....   0.100
   Minimum threshold for Micro iter.    ....   1.000e-02
   NR start threshold (gradient norm)   ....   1.000e-04
   Initial trust radius                 ....   0.400
   Minimum AH scaling param. (alpha)    ....   1.000
   Maximum AH scaling param. (alpha)    .... 1000.000
   Quad. conv. algorithm                .... NR
   White noise on init. David. guess    .... on
   Maximum white noise                  ....   0.010
   Pseudo random numbers                .... off
   Inactive MOs                         .... canonical
   Orbital update algorithm             .... Taylor
   Preconditioner                       .... Diag
   Full preconditioner red. dimension   ....   250
 SOSCF                  CNVSOSCF        .... on
   Start iteration      SOSCFMaxIt      ....   150
   Startup grad/error   SOSCFStart      ....  0.003300
   Hessian update       SOSCFHessUp     .... L-BFGS
 Level Shifting         CNVShift        .... on
   Level shift para.    LevelShift      ....    0.2500
   Turn off err/grad.   ShiftErr        ....    0.0010
 Zerner damping         CNVZerner       .... off
 Static damping         CNVDamp         .... on
   Fraction old density DampFac         ....    0.7000
   Max. Damping (<1)    DampMax         ....    0.9800
   Min. Damping (>=0)   DampMin         ....    0.0000
   Turn off err/grad.   DampErr         ....    0.1000

SCF Procedure:
 Maximum # iterations   MaxIter         ....   125
 SCF integral mode      SCFMode         .... Direct
   Integral package                     .... SHARK and LIBINT hybrid scheme
 Reset frequency        DirectResetFreq ....    20
 Integral Threshold     Thresh          ....  1.000e-10 Eh
 Primitive CutOff       TCut            ....  1.000e-11 Eh

Convergence Tolerance:
 Convergence Check Mode ConvCheckMode   .... Total+1el-Energy
 Convergence forced     ConvForced      .... 0
 Energy Change          TolE            ....  1.000e-06 Eh
 1-El. energy change                    ....  1.000e-03 Eh
 Orbital Gradient       TolG            ....  5.000e-05
 Orbital Rotation angle TolX            ....  5.000e-05
 DIIS Error             TolErr          ....  1.000e-06

---------------------
INITIAL GUESS: MOREAD
---------------------
Guess MOs are being read from file: acetic_acid.ges
Input Geometry matches current geometry (good)
Input basis set matches current basis set (good)
Occupation numbers will be reassigned to an Aufbau configuration
MOs were renormalized
MOs were reorthogonalized (Cholesky)
                      ------------------
                      INITIAL GUESS DONE (   0.0 sec)
                      ------------------
             **** ENERGY FILE WAS UPDATED (acetic_acid.en.tmp) ****
Finished Guess after   0.0 sec
Maximum memory used throughout the entire GUESS-calculation: 6.8 MB

-------------------------------------------------------------------------------------------
                                      ORCA LEAN-SCF
                              memory conserving SCF solver
-------------------------------------------------------------------------------------------

----------------------------------------D-I-I-S--------------------------------------------
Iteration    Energy (Eh)           Delta-E    RMSDP     MaxDP     DIISErr   Damp  Time(sec)
-------------------------------------------------------------------------------------------
               ***  Starting incremental Fock matrix formation  ***
                              *** Initializing SOSCF ***
---------------------------------------S-O-S-C-F--------------------------------------
Iteration    Energy (Eh)           Delta-E    RMSDP     MaxDP     MaxGrad    Time(sec)
--------------------------------------------------------------------------------------
    1    -228.7899842403685682     0.00e+00  2.33e-05  3.65e-04  6.47e-05     0.6
               *** Restarting incremental Fock matrix formation ***
    2    -228.7899841632676896     7.71e-08  4.12e-05  7.51e-04  1.90e-04     0.6
    3    -228.7899830719742056     1.09e-06  2.93e-05  5.54e-04  4.82e-04     0.5
    4    -228.7899844358616690    -1.36e-06  2.46e-06  2.76e-05  1.01e-05     0.5
                  *** Gradient check signals convergence ***

               *****************************************************
               *                     SUCCESS                       *
               *           SCF CONVERGED AFTER   4 CYCLES          *
               *****************************************************

Recomputing exchange energy using gridx3       ... done (    0.845 sec)
Old exchange energy                            :     -5.624353836 Eh
New exchange energy                            :     -5.624346341 Eh
Exchange energy change after final integration :      0.000007495 Eh
Total energy after final integration           :   -228.789976941 Eh
             **** ENERGY FILE WAS UPDATED (acetic_acid.en.tmp) ****

----------------
TOTAL SCF ENERGY
----------------

Total Energy       :       -228.78997694081670 Eh           -6225.69178 eV

Components:
Nuclear Repulsion  :        119.89763914800827 Eh            3262.58063 eV
Electronic Energy  :       -348.68762358386994 Eh           -9488.27261 eV
One Electron Energy:       -549.49280606075138 Eh          -14952.45942 eV
Two Electron Energy:        200.80518247688141 Eh            5464.18681 eV

Virial components:
Potential Energy   :       -455.50435009993146 Eh          -12394.90351 eV
Kinetic Energy     :        226.71437315911473 Eh            6169.21173 eV
Virial Ratio       :          2.00915514862503

DFT components:
N(Alpha)           :       15.999997813196 electrons
N(Beta)            :       15.999997813196 electrons
N(Total)           :       31.999995626391 electrons
E(X)               :      -22.391641379966 Eh       
E(C)               :       -1.294583782082 Eh       
E(XC)              :      -23.686225162047 Eh       

---------------
SCF CONVERGENCE
---------------

  Last Energy change         ...    1.3639e-06  Tolerance :   1.0000e-06
  Last MAX-Density change    ...    2.7631e-05  Tolerance :   1.0000e-05
  Last RMS-Density change    ...    2.4615e-06  Tolerance :   1.0000e-06
  Last DIIS Error            ...    2.8018e-04  Tolerance :   1.0000e-06
  Last Orbital Gradient      ...    1.0079e-05  Tolerance :   5.0000e-05
  Last Orbital Rotation      ...    1.4202e-05  Tolerance :   5.0000e-05


----------------
ORBITAL ENERGIES
----------------

  NO   OCC          E(Eh)            E(eV) 
   0   2.0000     -19.177868      -521.8563 
   1   2.0000     -19.120764      -520.3024 
   2   2.0000     -10.317408      -280.7509 
   3   2.0000     -10.218060      -278.0475 
   4   2.0000      -1.089967       -29.6595 
   5   2.0000      -1.000393       -27.2221 
   6   2.0000      -0.739432       -20.1210 
   7   2.0000      -0.598752       -16.2929 
   8   2.0000      -0.480717       -13.0810 
   9   2.0000      -0.471130       -12.8201 
  10   2.0000      -0.462817       -12.5939 
  11   2.0000      -0.402205       -10.9445 
  12   2.0000      -0.391957       -10.6657 
  13   2.0000      -0.380887       -10.3645 
  14   2.0000      -0.319421        -8.6919 
  15   2.0000      -0.276890        -7.5346 
  16   0.0000       0.002144         0.0583 
  17   0.0000       0.048876         1.3300 
  18   0.0000       0.075456         2.0532 
  19   0.0000       0.111906         3.0451 
  20   0.0000       0.125597         3.4177 
  21   0.0000       0.208116         5.6631 
  22   0.0000       0.260089         7.0774 
  23   0.0000       0.306550         8.3416 
  24   0.0000       0.435448        11.8491 
  25   0.0000       0.444876        12.1057 
  26   0.0000       0.505218        13.7477 
*Only the first 10 virtual orbitals were printed.

                    ********************************
                    * MULLIKEN POPULATION ANALYSIS *
                    ********************************

-----------------------
MULLIKEN ATOMIC CHARGES
-----------------------
   0 C :   -0.055889
   1 C :    0.097380
   2 H :    0.056188
   3 H :    0.077749
   4 H :    0.066002
   5 O :   -0.223231
   6 O :   -0.198268
   7 H :    0.180069
Sum of atomic charges:   -0.0000000

--------------------------------
MULLIKEN REDUCED ORBITAL CHARGES
--------------------------------
  0 C s       :     3.074479  s :     3.074479
      pz      :     1.020689  p :     2.958857
      px      :     0.974708
      py      :     0.963460
      dz2     :     0.005335  d :     0.022553
      dxz     :     0.004222
      dyz     :     0.002005
      dx2y2   :     0.003147
      dxy     :     0.007845

  1 C s       :     3.090924  s :     3.090924
      pz      :     0.812560  p :     2.679545
      px      :     0.904865
      py      :     0.962120
      dz2     :     0.008845  d :     0.132151
      dxz     :     0.014248
      dyz     :     0.023304
      dx2y2   :     0.034078
      dxy     :     0.051676

  2 H s       :     0.923305  s :     0.923305
      pz      :     0.004271  p :     0.020507
      px      :     0.004471
      py      :     0.011765

  3 H s       :     0.901827  s :     0.901827
      pz      :     0.011405  p :     0.020424
      px      :     0.005258
      py      :     0.003761

  4 H s       :     0.913877  s :     0.913877
      pz      :     0.007511  p :     0.020121
      px      :     0.008290
      py      :     0.004320

  5 O s       :     3.735591  s :     3.735591
      pz      :     1.403280  p :     4.469127
      px      :     1.742952
      py      :     1.322895
      dz2     :     0.002145  d :     0.018514
      dxz     :     0.000184
      dyz     :     0.005788
      dx2y2   :     0.006212
      dxy     :     0.004186

  6 O s       :     3.693336  s :     3.693336
      pz      :     1.756386  p :     4.491534
      px      :     1.206867
      py      :     1.528280
      dz2     :     0.001950  d :     0.013399
      dxz     :     0.001514
      dyz     :     0.001644
      dx2y2   :     0.002120
      dxy     :     0.006171

  7 H s       :     0.754773  s :     0.754773
      pz      :     0.015622  p :     0.065158
      px      :     0.024150
      py      :     0.025386



                     *******************************
                     * LOEWDIN POPULATION ANALYSIS *
                     *******************************

----------------------
LOEWDIN ATOMIC CHARGES
----------------------
   0 C :   -0.097146
   1 C :    0.076107
   2 H :    0.046519
   3 H :    0.067770
   4 H :    0.056370
   5 O :   -0.184610
   6 O :   -0.059333
   7 H :    0.094323

-------------------------------
LOEWDIN REDUCED ORBITAL CHARGES
-------------------------------
  0 C s       :     2.900202  s :     2.900202
      pz      :     1.058430  p :     3.137117
      px      :     1.039481
      py      :     1.039206
      dz2     :     0.013616  d :     0.059826
      dxz     :     0.011681
      dyz     :     0.004538
      dx2y2   :     0.009214
      dxy     :     0.020777

  1 C s       :     2.857517  s :     2.857517
      pz      :     0.801632  p :     2.779822
      px      :     0.933713
      py      :     1.044477
      dz2     :     0.019019  d :     0.286555
      dxz     :     0.027587
      dyz     :     0.044139
      dx2y2   :     0.074845
      dxy     :     0.120965

  2 H s       :     0.894302  s :     0.894302
      pz      :     0.010926  p :     0.059178
      px      :     0.012659
      py      :     0.035593

  3 H s       :     0.878436  s :     0.878436
      pz      :     0.032327  p :     0.053794
      px      :     0.013109
      py      :     0.008358

  4 H s       :     0.887368  s :     0.887368
      pz      :     0.020340  p :     0.056262
      px      :     0.024380
      py      :     0.011542

  5 O s       :     3.548039  s :     3.548039
      pz      :     1.401378  p :     4.604936
      px      :     1.740119
      py      :     1.463440
      dz2     :     0.004393  d :     0.031635
      dxz     :     0.000257
      dyz     :     0.007356
      dx2y2   :     0.012971
      dxy     :     0.006658

  6 O s       :     3.446208  s :     3.446208
      pz      :     1.722319  p :     4.586853
      px      :     1.273758
      py      :     1.590775
      dz2     :     0.004131  d :     0.026272
      dxz     :     0.002960
      dyz     :     0.001538
      dx2y2   :     0.004426
      dxy     :     0.013218

  7 H s       :     0.734560  s :     0.734560
      pz      :     0.043207  p :     0.171118
      px      :     0.056652
      py      :     0.071259



                      *****************************
                      * MAYER POPULATION ANALYSIS *
                      *****************************

  NA   - Mulliken gross atomic population
  ZA   - Total nuclear charge
  QA   - Mulliken gross atomic charge
  VA   - Mayer's total valence
  BVA  - Mayer's bonded valence
  FA   - Mayer's free valence

  ATOM       NA         ZA         QA         VA         BVA        FA
  0 C      6.0559     6.0000    -0.0559     3.8686     3.8686    -0.0000
  1 C      5.9026     6.0000     0.0974     4.4016     4.4016    -0.0000
  2 H      0.9438     1.0000     0.0562     0.9942     0.9942    -0.0000
  3 H      0.9223     1.0000     0.0777     0.9880     0.9880    -0.0000
  4 H      0.9340     1.0000     0.0660     0.9973     0.9973    -0.0000
  5 O      8.2232     8.0000    -0.2232     2.2504     2.2504    -0.0000
  6 O      8.1983     8.0000    -0.1983     2.2163     2.2163    -0.0000
  7 H      0.8199     1.0000     0.1801     1.0339     1.0339    -0.0000

  Mayer bond orders larger than 0.100000
B(  0-C ,  1-C ) :   1.0195 B(  0-C ,  2-H ) :   0.9530 B(  0-C ,  3-H ) :   0.9484 
B(  0-C ,  4-H ) :   0.9597 B(  1-C ,  5-O ) :   2.1006 B(  1-C ,  6-O ) :   1.2006 
B(  6-O ,  7-H ) :   0.9501 

-------
TIMINGS
-------

Total SCF time: 0 days 0 hours 0 min 3 sec 

Total time                  ....       3.030 sec
Sum of individual times     ....       3.024 sec  ( 99.8%)

SCF preparation             ....       0.047 sec  (  1.6%)
Fock matrix formation       ....       2.964 sec  ( 97.8%)
  Startup                   ....       0.000 sec  (  0.0% of F)
  Split-RI-J                ....       0.111 sec  (  3.7% of F)
  Chain of spheres X        ....       2.265 sec  ( 76.4% of F)
  XC integration            ....       0.575 sec  ( 19.4% of F)
    Basis function eval.    ....       0.248 sec  ( 43.2% of XC)
    Density eval.           ....       0.100 sec  ( 17.5% of XC)
    XC-Functional eval.     ....       0.058 sec  ( 10.1% of XC)
    XC-Potential eval.      ....       0.140 sec  ( 24.4% of XC)
Diagonalization             ....       0.000 sec  (  0.0%)
Density matrix formation    ....       0.001 sec  (  0.0%)
Total Energy calculation    ....       0.000 sec  (  0.0%)
Population analysis         ....       0.002 sec  (  0.1%)
Orbital Transformation      ....       0.001 sec  (  0.0%)
Orbital Orthonormalization  ....       0.000 sec  (  0.0%)
DIIS solution               ....       0.001 sec  (  0.0%)
SOSCF solution              ....       0.007 sec  (  0.2%)
Finished LeanSCF after   3.0 sec

Maximum memory used throughout the entire LEANSCF-calculation: 8.7 MB

------------------------------------------------------------------------------
                         ORCA PROPERTY INTEGRAL CALCULATIONS
------------------------------------------------------------------------------

GBWName                                   ... acetic_acid.gbw
Number of atoms                           ...      8
Number of basis functions                 ...     76
Max core memory                           ...   1024 MB

Dipole integrals                          ... YES
Quadrupole integrals                      ...  NO
Linear momentum integrals                 ...  NO
Angular momentum integrals                ...  NO
Higher moments length integrals           ...  NO
Higher moments velocity integrals         ...  NO
Kinetic energy integrals                  ...  NO
GIAO right hand sides                     ...  NO
GIAO dipole derivative integrals          ...  NO
SOC integrals                             ...  NO
EPR diamagnetic integrals (GIAO)          ...  NO
EPR gauge integrals                       ...  NO
Field gradient integrals                  ...  NO (   0 nuclei)
Spin-dipole/Fermi contact integrals       ...  NO (   0 nuclei)
Contact density integrals                 ...  NO (   0 nuclei)
Nucleus-orbit integrals                   ...  NO (   0 nuclei)
Geometric perturbations                   ... YES (   8 nuclei)

Choice of electric origin   ... Center of mass
Position of electric origin ... (  0.6160,  0.7518, -0.0251) 
Choice of magnetic origin   ... GIAO
Position of magnetic origin ... (  0.0000,  0.0000,  0.0000) 

Calculating integrals                     ... Electric Dipole (Length)     done (  0.0 sec)
Calculating integrals                     ... Geometrical perturbation right hand sides

-----------------------
GEOMETRIC PERTURBATIONS (8 nuclei)
-----------------------

MaxCore                            ...   1024 MB
Number of batches                  ...      1

BATCH   0: Atoms    0 -    7 ( 24 perturbations)
   => H(core) and overlap derivative integrals     ... done (     0.0 sec)
   => Making and storing internal U-coefficients   ... done (     0.0 sec)
   => RI-J derivative integrals                    ... done (     0.3 sec)
   => RI-J response operators                      ... done (     0.1 sec)
   => Chain of spheres derivative integrals        ... done (     2.0 sec)
   => Chain of spheres response operator           ... done (     1.2 sec)
   => XC derivative integrals                      ... done (     6.1 sec)
   => XC response operators                        ... done (     1.5 sec)
   => Completing and storing right hand sides      ... done (     0.0 sec)
   => Total time for right hand sides =  11.4 sec

  geometrical perturbations done ( 11.4 sec)

Property integrals calculated in  11.4 sec

Maximum memory used throughout the entire PROPINT-calculation: 17.2 MB


-------------------------------------------------------------------------------
                          DFT DISPERSION CORRECTION                            
                                                                               
                                DFTD4 V3.4.0                                   
-------------------------------------------------------------------------------
The B3LYP functional is recognized
Active option DFTDOPT                   ...         5   

-------------------------   ----------------
Dispersion correction           -0.006127271
-------------------------   ----------------


-------------------------   --------------------
FINAL SINGLE POINT ENERGY      -228.796104211995
-------------------------   --------------------

------------------------------------------------------------------------------
                            ORCA SCF RESPONSE CALCULATION
------------------------------------------------------------------------------

GBWName                                 ... acetic_acid.gbw
Number of atoms                         ...      8
Number of basis functions               ...     76
Max core memory                         ...   1024 MB

Electric field perturbation             ...  NO
Quadrupolar field perturbation          ...  NO
Magnetic field perturbation (no GIAO)   ...  NO
Magnetic field perturbation (with GIAO) ...  NO
Linear momentum (velocity) perturbation ...  NO
Spin-orbit coupling perturbation        ...  NO
Choice of electric origin               ... Center of mass
Position of electric origin             ...     0.615978     0.751809    -0.025070
Choice of magnetic origin               ... GIAO
Position of magnetic origin             ...     0.000000     0.000000     0.000000
Nuclear geometric perturbations         ... YES (  24 perturbations)
Nucleus-orbit perturbations             ...  NO (   0 perturbations)
Spin-dipole/Fermi contact perturbations ...  NO (   0 perturbations)

Total number of real perturbations      ...     24
Total number of imaginary perturbations ...      0
Total number of triplet perturbations   ...      0
Total number of SOC perturbations       ...      0


                                **********************
                                * REAL PERTURBATIONS *
                                **********************



-------------------
SHARK CP-SCF DRIVER
-------------------

Dimension of the orbital basis          ...     76
Dimension of the CPSCF-problem          ...    960
Number of operators                     ...      1
Max. number of iterations               ...    128
Convergence Tolerance                   ... 1.0e-03
Number of perturbations                 ...     24
Perturbation type                       ... REAL

----------------------------
POPLE LINEAR EQUATION SOLVER
----------------------------

  ITERATION   0:   ||err||_max =   5.4696e-01 (   0.7 sec   0/ 24 done)
  ITERATION   1:   ||err||_max =   5.0131e-02 (   0.7 sec   0/ 24 done)
  ITERATION   2:   ||err||_max =   1.3453e-02 (   0.7 sec   1/ 24 done)
  ITERATION   3:   ||err||_max =   2.8617e-03 (   0.7 sec   8/ 24 done)
  ITERATION   4:   ||err||_max =   9.9831e-04 (   0.6 sec  24/ 24 done)

CP-SCF equations solved in   3.5 sec
Response densities calculated in   0.0 sec

Maximum memory used throughout the entire SCFRESP-calculation: 16.7 MB

------------------------------------------------------------------------------
                              ORCA PROPERTY CALCULATIONS
------------------------------------------------------------------------------

GBWName                                 ... acetic_acid.gbw
Number of atoms                         ...      8
Number of basis functions               ...     76
Max core memory                         ...   1024 MB

Electric properties:
Dipole moment                           ... YES
Quadrupole moment                       ...  NO
Static polarizability (Dipole/Dipole)   ...  NO
Static polarizability (Dipole/Quad.)    ...  NO
Static polarizability (Quad./Quad.)     ...  NO
Static polarizability (Velocity)        ...  NO

Atomic electric properties:
Dipole moment                           ...  NO
Quadrupole moment                       ...  NO
Static polarizability                   ...  NO

Choice of electric origin               ... Center of mass
Position of electric origin             ...     0.615978     0.751809    -0.025070

General magnetic properties:
Magnetizability                         ...  NO

EPR properties:
g-Tensor (aka g-matrix)                 ...  NO
Zero-Field splitting spin-orbit         ...  NO
Zero-field splitting spin-spin          ...  NO
Hyperfine couplings                     ...  NO (   0 nuclei)
Quadrupole couplings                    ...  NO (   0 nuclei)
Contact density                         ...  NO (   0 nuclei)

NMR properties:
Chemical shifts                         ...  NO (   0 nuclei)
Spin-rotation constants                 ...  NO (   0 nuclei)
Spin-spin couplings                     ...  NO (   0 nuclei,    0 pairs)

Choice of magnetic origin               ... GIAO
Position of magnetic origin             ...     0.000000     0.000000     0.000000

Properties with geometric perturbations:
SCF Hessian                             ... YES
IR spectrum                             ... YES
VCD spectrum                            ...  NO
X-ray spectroscopy properties:
SCF XES/XAS/RIXS spectra                ...  NO


-------------
DIPOLE MOMENT
-------------

Method             : SCF
Type of density    : Electron Density
Multiplicity       :   1
Irrep              :   0
Energy             :  -228.7899769408167003 Eh
Relativity type    : 
Basis              : AO
                                X                 Y                 Z
Electronic contribution:      2.436590894       2.395654849      -0.135264753
Nuclear contribution   :     -2.310891628      -2.964439205       0.209176832
                        -----------------------------------------
Total Dipole Moment    :      0.125699266      -0.568784356       0.073912078
                        -----------------------------------------
Magnitude (a.u.)       :      0.587178801
Magnitude (Debye)      :      1.492489902



--------------------
Rotational spectrum 
--------------------
 
Rotational constants in cm-1:             0.371875             0.311183             0.175860 
Rotational constants in MHz :         11148.517104          9329.039512          5272.148483 

Dipole components along the rotational axes: 
x,y,z [a.u.] :    -0.198704    -0.551917    -0.026144 
x,y,z [Debye]:    -0.505064    -1.402861    -0.066452 

 

Dipole moment calculation done in   0.0 sec 

-----------
SCF HESSIAN
-----------

Occupied/Occupied contributions to the Hessian:
   => Occupied/Occupied contributions              ... done (  0.0 sec)
Perturbed density contributions to the Hessian:
   => Perturbed density contributions              ... done (  0.0 sec)
Explicit contributions to the Hessian:
   => Nuclear repulsion Hessian                    ... done (  0.0 sec)
   => HCore and overlap Hessian                    ... done (  0.4 sec)
   => RI-J Hessian                                 ... done (  0.8 sec)
   => COSX Hessian                                 ... done ( 38.2 sec)
   => XC-Hessian                                   ... done (  6.6 sec)
   => Van der Waals-Hessian                        ... done (  1.1 sec)
   => Explicit contributions done
Dipole derivatives                                 ... done (  0.0 sec)
Mass weighting the Hessian           ... done
Calculating normal modes             ... done
Scaling frequencies                  ... done

-----------------------
VIBRATIONAL FREQUENCIES
-----------------------

Scaling factor for frequencies =  1.000000000  (already applied!)

     0:       0.00 cm**-1
     1:       0.00 cm**-1
     2:       0.00 cm**-1
     3:       0.00 cm**-1
     4:       0.00 cm**-1
     5:       0.00 cm**-1
     6:     482.13 cm**-1
     7:     591.76 cm**-1
     8:     614.45 cm**-1
     9:     641.86 cm**-1
    10:     739.49 cm**-1
    11:     862.86 cm**-1
    12:    1097.75 cm**-1
    13:    1152.48 cm**-1
    14:    1229.85 cm**-1
    15:    1355.61 cm**-1
    16:    1464.16 cm**-1
    17:    1481.62 cm**-1
    18:    1492.93 cm**-1
    19:    1848.07 cm**-1
    20:    2407.97 cm**-1
    21:    2578.16 cm**-1
    22:    2705.97 cm**-1
    23:    3700.44 cm**-1


------------
NORMAL MODES
------------

These modes are the Cartesian displacements weighted by the diagonal matrix
M(i,i)=1/sqrt(m[i]) where m[i] is the mass of the displaced atom
Thus, these vectors are normalized but *not* orthogonal

                  0          1          2          3          4          5    
      0       0.000000   0.000000   0.000000   0.000000   0.000000   0.000000
      1       0.000000   0.000000   0.000000   0.000000   0.000000   0.000000
      2       0.000000   0.000000   0.000000   0.000000   0.000000   0.000000
      3       0.000000   0.000000   0.000000   0.000000   0.000000   0.000000
      4       0.000000   0.000000   0.000000   0.000000   0.000000   0.000000
      5       0.000000   0.000000   0.000000   0.000000   0.000000   0.000000
      6       0.000000   0.000000   0.000000   0.000000   0.000000   0.000000
      7       0.000000   0.000000   0.000000   0.000000   0.000000   0.000000
      8       0.000000   0.000000   0.000000   0.000000   0.000000   0.000000
      9       0.000000   0.000000   0.000000   0.000000   0.000000   0.000000
     10       0.000000   0.000000   0.000000   0.000000   0.000000   0.000000
     11       0.000000   0.000000   0.000000   0.000000   0.000000   0.000000
     12       0.000000   0.000000   0.000000   0.000000   0.000000   0.000000
     13       0.000000   0.000000   0.000000   0.000000   0.000000   0.000000
     14       0.000000   0.000000   0.000000   0.000000   0.000000   0.000000
     15       0.000000   0.000000   0.000000   0.000000   0.000000   0.000000
     16       0.000000   0.000000   0.000000   0.000000   0.000000   0.000000
     17       0.000000   0.000000   0.000000   0.000000   0.000000   0.000000
     18       0.000000   0.000000   0.000000   0.000000   0.000000   0.000000
     19       0.000000   0.000000   0.000000   0.000000   0.000000   0.000000
     20       0.000000   0.000000   0.000000   0.000000   0.000000   0.000000
     21       0.000000   0.000000   0.000000   0.000000   0.000000   0.000000
     22       0.000000   0.000000   0.000000   0.000000   0.000000   0.000000
     23       0.000000   0.000000   0.000000   0.000000   0.000000   0.000000
                  6          7          8          9         10         11    
      0      -0.197581  -0.176062  -0.001870   0.002004  -0.010429   0.240679
      1       0.144956  -0.201875   0.012039  -0.006270  -0.020653   0.187124
      2      -0.048354   0.009173   0.031366   0.001679  -0.009481  -0.014724
      3       0.074867  -0.116294   0.023020  -0.001411   0.020828  -0.041014
      4      -0.151472  -0.059169  -0.034840   0.003870  -0.034602  -0.149021
      5       0.036551   0.038564  -0.175368   0.005964  -0.255917   0.046527
      6      -0.548749  -0.059649  -0.101900   0.105379  -0.128907   0.218859
      7       0.015320  -0.152334  -0.050486  -0.100536  -0.093276   0.183069
      8      -0.057332  -0.037554   0.137776   0.556716   0.118998   0.009375
      9      -0.288597  -0.212203   0.180558  -0.371780   0.222102   0.279205
     10       0.260214  -0.310099   0.191608   0.424367   0.208333   0.284764
     11      -0.085523  -0.008214   0.109524  -0.152101   0.090184  -0.003101
     12      -0.025752  -0.195783  -0.107141   0.231029  -0.165857   0.314587
     13       0.444745  -0.278095  -0.053810  -0.305711  -0.117097   0.316087
     14      -0.094673  -0.011743   0.121161  -0.415492   0.120342  -0.014922
     15      -0.084915   0.318539   0.001848  -0.003263   0.011182   0.047540
     16      -0.182466  -0.003456  -0.007075   0.009697   0.011375  -0.186467
     17       0.019681   0.022672   0.048029   0.049706   0.105518   0.030366
     18       0.232477  -0.043820  -0.007502   0.004574  -0.020462  -0.219946
     19       0.120840   0.211660   0.004480  -0.008400   0.041440   0.090477
     20       0.011818  -0.049497  -0.017792  -0.051707   0.124394  -0.038763
     21      -0.016784  -0.409089  -0.133791   0.007494   0.096031  -0.455365
     22       0.335484   0.546425   0.225570  -0.010107  -0.177835   0.285607
     23      -0.121783  -0.085535   0.867499  -0.048452  -0.816309  -0.237036
                 12         13         14         15         16         17    
      0      -0.037723   0.021828   0.084696   0.031252  -0.123058  -0.022410
      1       0.114174  -0.046207  -0.060373  -0.038242  -0.068382   0.022513
      2      -0.039973  -0.143483   0.039765   0.006266   0.019746  -0.040343
      3      -0.141259  -0.016476  -0.110129  -0.263011   0.057555  -0.018613
      4      -0.012016   0.021347  -0.002294  -0.010100  -0.002388  -0.009760
      5      -0.007524   0.125814  -0.037366  -0.026574   0.014921  -0.016995
      6       0.607970  -0.335474  -0.307413   0.115312   0.278551   0.017514
      7       0.320631  -0.277541  -0.155720   0.032914   0.115177  -0.135617
      8       0.093411   0.301896  -0.120399  -0.089111  -0.174785   0.657872
      9       0.230179   0.515241  -0.147934   0.063210   0.558029   0.196114
     10      -0.060453   0.472720   0.149447   0.318628   0.263424  -0.572862
     11       0.071425   0.091956  -0.059796   0.014278   0.291605   0.058157
     12      -0.295413  -0.326269   0.312389   0.195321   0.387919   0.159558
     13      -0.412694  -0.067915   0.400314   0.367922   0.186773   0.380955
     14       0.006254   0.259802  -0.003004   0.015332  -0.439786  -0.062774
     15       0.006487   0.001519  -0.008287   0.046712  -0.010426   0.001663
     16      -0.010571   0.016345   0.089962  -0.036747   0.019630   0.010938
     17       0.000894  -0.019002  -0.010123   0.009792  -0.003142   0.000312
     18       0.110199   0.006085   0.069647   0.065630  -0.012839   0.004544
     19      -0.072881  -0.007784  -0.096242   0.056310  -0.005648   0.000915
     20       0.029822  -0.007917   0.030511  -0.003858  -0.000723   0.001479
     21      -0.262092  -0.037962  -0.527915   0.604635  -0.074725   0.017103
     22       0.259787   0.033081   0.452354  -0.453939   0.055975  -0.012583
     23      -0.092668  -0.015854  -0.168983   0.207310  -0.028763   0.001540
                 18         19         20         21         22         23    
      0      -0.033624   0.023049   0.035616  -0.048227  -0.040676  -0.000456
      1      -0.075411   0.071426   0.006096   0.002802   0.080161  -0.000563
      2      -0.030224  -0.008603  -0.064919  -0.061195   0.008915   0.000209
      3       0.061039   0.020857  -0.001236   0.001083  -0.003458   0.002858
      4      -0.001464  -0.710969  -0.000589   0.003768   0.001806   0.001246
      5      -0.005566   0.093682  -0.001463  -0.001502  -0.000385   0.000098
      6       0.571991   0.120901   0.035109  -0.084567   0.318019  -0.001302
      7       0.097004   0.105432  -0.086645   0.236642  -0.884867   0.000159
      8       0.150416  -0.060359  -0.036930   0.052525  -0.213681  -0.000312
      9      -0.288790  -0.029572  -0.379369  -0.049710   0.016349  -0.000022
     10       0.257057   0.022818  -0.005845   0.000073   0.006470  -0.000009
     11      -0.121148  -0.026727   0.909620   0.095957  -0.048050  -0.001094
     12      -0.198333  -0.084095  -0.070252   0.689942   0.173836   0.000627
     13       0.484824  -0.185572   0.031752  -0.293949  -0.074549   0.000092
     14       0.427829   0.067717  -0.084037   0.594883   0.153757  -0.001087
     15      -0.008348  -0.042557   0.000322   0.000116   0.000381  -0.000522
     16       0.005421   0.442481  -0.000508  -0.001168  -0.001108   0.000651
     17      -0.000862  -0.055704   0.000134   0.000207   0.000324  -0.000123
     18      -0.013290  -0.012113  -0.000018   0.000329   0.000695   0.042159
     19      -0.003680   0.058496   0.000311  -0.000215  -0.000292   0.044044
     20       0.000098  -0.012906   0.000007   0.000060   0.000107  -0.005076
     21      -0.068089   0.337325   0.000037  -0.000972   0.000597  -0.688783
     22       0.049495  -0.273601  -0.001750   0.000901  -0.001535  -0.717776
     23      -0.018506   0.094557   0.000088  -0.000528  -0.000506   0.081350


-----------
IR SPECTRUM
-----------

 Mode   freq       eps      Int      T**2         TX        TY        TZ
       cm**-1   L/(mol*cm) km/mol    a.u.
----------------------------------------------------------------------------
  6:    482.13   0.001273    6.43  0.000824  (-0.020754  0.017338 -0.009615)
  7:    591.76   0.007506   37.93  0.003958  (-0.061115 -0.014903 -0.001048)
  8:    614.45   0.009246   46.73  0.004696  (-0.008595  0.012457  0.066834)
  9:    641.86   0.000102    0.52  0.000050  (-0.002873  0.000952 -0.006370)
 10:    739.49   0.015818   79.94  0.006675  ( 0.002368 -0.013959 -0.080465)
 11:    862.86   0.000694    3.51  0.000251  (-0.001714 -0.015738 -0.000631)
 12:   1097.75   0.028703  145.05  0.008160  (-0.086716  0.021969 -0.012542)
 13:   1152.48   0.001211    6.12  0.000328  (-0.009843 -0.005239  0.014269)
 14:   1229.85   0.029783  150.51  0.007557  (-0.084299  0.014581 -0.015436)
 15:   1355.61   0.007573   38.27  0.001743  (-0.041660 -0.001806 -0.002130)
 16:   1464.16   0.007348   37.13  0.001566  ( 0.039003  0.005065 -0.004392)
 17:   1481.62   0.001553    7.85  0.000327  ( 0.001661 -0.013128  0.012332)
 18:   1492.93   0.002536   12.81  0.000530  ( 0.016113  0.012789  0.010337)
 19:   1848.07   0.058002  293.12  0.009794  ( 0.022481 -0.094646  0.018192)
 20:   2407.97   0.000632    3.19  0.000082  ( 0.002780 -0.000199 -0.008610)
 21:   2578.16   0.000907    4.58  0.000110  (-0.006769 -0.000753 -0.007961)
 22:   2705.97   0.001369    6.92  0.000158  (-0.002825  0.012192  0.001116)
 23:   3700.44   0.012030   60.79  0.001014  (-0.027027 -0.016781  0.001557)

* The epsilon (eps) is given for a Dirac delta lineshape.
** The dipole moment derivative (T) already includes vibrational overlap.

The first frequency considered to be a vibration is 6
The total number of vibrations considered is 18


--------------------------
THERMOCHEMISTRY AT 298.15K
--------------------------

Temperature         ...   298.15 K
Pressure            ...     1.00 atm
Total Mass          ...    60.05 AMU
Quasi RRHO          ...     True
Cut-Off Frequency   ...     1.00 cm^-1

Throughout the following assumptions are being made:
  (1) The electronic state is orbitally nondegenerate
  (2) There are no thermally accessible electronically excited states
  (3) Hindered rotations indicated by low frequency modes are not
      treated as such but are treated as vibrations and this may
      cause some error
  (4) All equations used are the standard statistical mechanics
      equations for an ideal gas
  (5) All vibrations are strictly harmonic

freq.     482.13  E(vib)   ...       0.15 
freq.     591.76  E(vib)   ...       0.10 
freq.     614.45  E(vib)   ...       0.10 
freq.     641.86  E(vib)   ...       0.09 
freq.     739.49  E(vib)   ...       0.06 
freq.     862.86  E(vib)   ...       0.04 
freq.    1097.75  E(vib)   ...       0.02 
freq.    1152.48  E(vib)   ...       0.01 
freq.    1229.85  E(vib)   ...       0.01 
freq.    1355.61  E(vib)   ...       0.01 
freq.    1464.16  E(vib)   ...       0.00 
freq.    1481.62  E(vib)   ...       0.00 
freq.    1492.93  E(vib)   ...       0.00 
freq.    1848.07  E(vib)   ...       0.00 
freq.    2407.97  E(vib)   ...       0.00 
freq.    2578.16  E(vib)   ...       0.00 
freq.    2705.97  E(vib)   ...       0.00 
freq.    3700.44  E(vib)   ...       0.00 

------------
INNER ENERGY
------------

The inner energy is: U= E(el) + E(ZPE) + E(vib) + E(rot) + E(trans)
    E(el)   - is the total energy from the electronic structure calculation
              = E(kin-el) + E(nuc-el) + E(el-el) + E(nuc-nuc)
    E(ZPE)  - the the zero temperature vibrational energy from the frequency calculation
    E(vib)  - the the finite temperature correction to E(ZPE) due to population
              of excited vibrational states
    E(rot)  - is the rotational thermal energy
    E(trans)- is the translational thermal energy

Summary of contributions to the inner energy U:
Electronic energy                ...   -228.79610421 Eh
Zero point energy                ...      0.06025193 Eh      37.81 kcal/mol
Thermal vibrational correction   ...      0.00093923 Eh       0.59 kcal/mol
Thermal rotational correction    ...      0.00141627 Eh       0.89 kcal/mol
Thermal translational correction ...      0.00141627 Eh       0.89 kcal/mol
-----------------------------------------------------------------------
Total thermal energy                   -228.73208051 Eh


Summary of corrections to the electronic energy:
(perhaps to be used in another calculation)
Total thermal correction                  0.00377177 Eh       2.37 kcal/mol
Non-thermal (ZPE) correction              0.06025193 Eh      37.81 kcal/mol
-----------------------------------------------------------------------
Total correction                          0.06402370 Eh      40.18 kcal/mol


--------
ENTHALPY
--------

The enthalpy is H = U + kB*T
                kB is Boltzmann's constant
Total thermal energy              ...   -228.73208051 Eh 
Thermal Enthalpy correction       ...      0.00094421 Eh       0.59 kcal/mol
-----------------------------------------------------------------------
Total Enthalpy                    ...   -228.73113630 Eh


Note: Only C1 symmetry has been detected, increase convergence thresholds 
      if your molecule has a higher symmetry. Symmetry factor of 1.0 is   
      used for the rotational entropy correction. 
 

Note: Rotational entropy computed according to Herzberg 
Infrared and Raman Spectra, Chapter V,1, Van Nostrand Reinhold, 1945 
Point Group:  C1, Symmetry Number:   1  
Rotational constants in cm-1:     0.371875     0.311183     0.175860 

Vibrational entropy computed according to the QRRHO of S. Grimme
Chem.Eur.J. 2012 18 9955 using a reference frequency of 100.0 cm-1


-------
ENTROPY
-------

The entropy contributions are T*S = T*(S(el)+S(vib)+S(rot)+S(trans))
     S(el)   - electronic entropy
     S(vib)  - vibrational entropy
     S(rot)  - rotational entropy
     S(trans)- translational entropy
The entropies will be listed as multiplied by the temperature to get
units of energy

Electronic entropy                ...      0.00000000 Eh      0.00 kcal/mol
Vibrational entropy               ...      0.00124351 Eh      0.78 kcal/mol
Rotational entropy                ...      0.01134943 Eh      7.12 kcal/mol
Translational entropy             ...      0.01814900 Eh     11.39 kcal/mol
-----------------------------------------------------------------------
Final entropy term                ...      0.03074195 Eh     19.29 kcal/mol

In case the symmetry of your molecule has not been determined correctly
or in case you have a reason to use a different symmetry number we print 
out the resulting rotational entropy values for sn=1,12:

 non-linear molecules -----------------------------------
|  sn= 1 | S(rot)=       0.01134943 Eh      7.12 kcal/mol|
|  sn= 2 | S(rot)=       0.01069498 Eh      6.71 kcal/mol|
|  sn= 3 | S(rot)=       0.01031214 Eh      6.47 kcal/mol|
|  sn= 4 | S(rot)=       0.01004052 Eh      6.30 kcal/mol|
|  sn= 5 | S(rot)=       0.00982983 Eh      6.17 kcal/mol|
|  sn= 6 | S(rot)=       0.00965769 Eh      6.06 kcal/mol|
|  sn= 7 | S(rot)=       0.00951214 Eh      5.97 kcal/mol|
|  sn= 8 | S(rot)=       0.00938606 Eh      5.89 kcal/mol|
|  sn= 9 | S(rot)=       0.00927485 Eh      5.82 kcal/mol|
|  sn=10 | S(rot)=       0.00917538 Eh      5.76 kcal/mol|
|  sn=11 | S(rot)=       0.00908539 Eh      5.70 kcal/mol|
|  sn=12 | S(rot)=       0.00900323 Eh      5.65 kcal/mol|
 linear molecules ---------------------------------------
|  Dinfh | S(rot)=       0.00696686 Eh      4.37 kcal/mol|
|  Cinfv | S(rot)=       0.00762131 Eh      4.78 kcal/mol|
 --------------------------------------------------------


-------------------
GIBBS FREE ENERGY
-------------------

The Gibbs free energy is G = H - T*S

Total enthalpy                    ...   -228.73113630 Eh 
Total entropy correction          ...     -0.03074195 Eh    -19.29 kcal/mol
-----------------------------------------------------------------------
Final Gibbs free energy         ...   -228.76187825 Eh

For completeness - the Gibbs free energy minus the electronic energy
G-E(el)                           ...      0.03422596 Eh     21.48 kcal/mol


Maximum memory used throughout the entire PROP-calculation: 26.8 MB

--------------------------------
SUGGESTED CITATIONS FOR THIS RUN
--------------------------------

Below you find a list of papers that are relevant to this ORCA run
We neither can nor want to force you to cite these papers, but we appreciate if you do
You receive ORCA, which is the product of decades of hard work by many enthusiastic individuals, for free
The only thing we kindly ask in return is that you cite our papers,
We deeply appreciate it, if you show your appreciation for ORCA by not just citing the generic ORCA reference.

Please note that relegating all ORCA citations to the supporting information does *not* help us.
SI sections are not indexed - citations you put there will not count into any citation statistics
But we need these citations in order to attract the funding resources that allow us to do what we are doing

Therefore, if you are a happy ORCA user, please consider citing a few of the papers listed below in the main body of your paper

In addition to the list printed below, the program has created the file acetic_acid.bibtex that contains the list in bibtex format
You can import this file easily into all common literature databanks and citation aid programs


List of essential papers. We consider these as the minimum necessary citations

  1. Neese,F.
     Software update: the ORCA program system, version 5.0
     WIRES Comput. Molec. Sci., 2022 12(1)e1606
     doi.org/10.1002/wcms.1606

List of papers to cite with high priority. The work reported in these papers was absolutely
necessary for this run to complete.
Our perspective: the developers of density functionals and basis sets usually get cited in chemistry papers
Good! But without the algorithms to do something with them, the functionals or basis sets would not do anything.
Hence, in our opinion, the algorithm design and method developments papers are equally worthy of getting cited

  1. Neese,F.
     An improvement of the resolution of the identity approximation for the formation of the Coulomb matrix
     J. Comp. Chem., 2003 24(14)1740-1747
     doi.org/10.1002/jcc.10318
  2. Neese,F.; Wennmohs,F.; Hansen,A.; Becker,U.
     Efficient, approximate and parallel Hartree-Fock and hybrid DFT calculations. A 'chain-of-spheres' algorithm for the Hartree-Fock exchange
     Chem. Phys., 2009 356(1-3)98-109
     doi.org/10.1016/j.chemphys.2008.10.036
  3. Bykov,D.; Petrenko,T.; Izsak,R.; Kossmann,S.; Becker,U.; Valeev,E.; Neese,F.
     Efficient implementation of the analytic second derivatives of Hartree-Fock and hybrid DFT energies: a detailed analysis of different approximations
     Molec. Phys., 2015 113 1961-1977
     doi.org/10.1080/00268976.2015.1025114
  4. Helmich-Paris,B.; de Souza,B.; Neese,F.; Izsák,R.
     An improved chain of spheres for exchange algorithm
     J. Chem. Phys., 2021 155 104109
     doi.org/doi: 10.1063/5.0058766.
  5. Neese,F.
     The SHARK Integral Generation and Digestion System
     J. Comp. Chem., 2022  1-16
     doi.org/10.1002/jcc.26942
  6. Caldeweyher,E.; Bannwarth,C.; Grimme,S.
     Extension of the D3 dispersion coefficient model
     J. Chem. Phys., 2017 147 034112
     doi.org/10.1063/1.4993215
  7. Caldeweyher,E.; Ehlert,S.; Hansen,A.; Neugebauer,H.; Spicher,S.; Bannwarth,C.; Grimme,S.
     A generally applicable atomic-charge dependent London dispersion correction
     J. Chem. Phys., 2019 150 154122
     doi.org/10.1063/1.5090222
  8. Caldeweyher,E.; Mewes,J.; Ehlert,S.; Grimme,S.
     Extension and evaluation of the D4 London-dispersion model for periodic systems
     Phys. Chem. Chem. Phys., 2020 22(16)8499-8512
     doi.org/10.1039/D0CP00502A
  9. Wittmann,L.; Gordiy,I.; Friede,M.; Helmich-Paris,B.; Grimme,S.; Hansen,A.; Bursch,M.
     Extension of the D3 and D4 London Dispersion Corrections to the full Actinides Series
     Phys. Chem. Chem. Phys., 2024 26(32)21379-21394
     doi.org/https://doi.org/10.1039/D4CP01514B 

List of suggested additional citations. These are papers that are important in the 'surrounding' of 
of this run, or papers that preceded the highly important papers. If you like your results we are grateful for a citation.

  1. Izsak,R.; Neese,F.
     An overlap fitted chain of spheres exchange method
     J. Chem. Phys., 2011 135 144105
     doi.org/10.1063/1.3646921
  2. Izsak,R.; Hansen,A.; Neese,F.
     The resolution of identity and chain of spheres approximations for the LPNO-CCSD singles Fock term
     Molec. Phys., 2012 110 2413-2417
     doi.org/10.1080/00268976.2012.687466
  3. Neese,F.
     The ORCA program system
     WIRES Comput. Molec. Sci., 2012 2(1)73-78
     doi.org/10.1002/wcms.81
  4. Izsak,R.; Neese,F.; Klopper,W.
     Robust fitting techniques in the chain of spheres approximation to the Fock exchange: The role of the complementary space
     J. Chem. Phys., 2013 139 
     doi.org/10.1063/1.4819264
  5. Neese,F.
     Software update: the ORCA program system, version 4.0
     WIRES Comput. Molec. Sci., 2018 8(1)1-6
     doi.org/10.1002/wcms.1327
  6. Neese,F.; Wennmohs,F.; Becker,U.; Riplinger,C.
     The ORCA quantum chemistry program package
     J. Chem. Phys., 2020 152 Art. No. L224108
     doi.org/10.1063/5.0004608

List of optional additional citations

  1. Neese,F.
     Approximate second-order SCF convergence for spin unrestricted wavefunctions
     Chem. Phys. Lett., 2000 325(1-3)93-98
     doi.org/10.1016/s0009-2614(00)00662-x

Timings for individual modules:

Sum of individual times          ...       65.742 sec (=   1.096 min)
Startup calculation              ...        0.421 sec (=   0.007 min)   0.6 %
SCF iterations                   ...        3.100 sec (=   0.052 min)   4.7 %
Property integrals               ...       11.399 sec (=   0.190 min)  17.3 %
SCF Response                     ...        3.581 sec (=   0.060 min)   5.4 %
Property calculations            ...       47.242 sec (=   0.787 min)  71.9 %
                             ****ORCA TERMINATED NORMALLY****
TOTAL RUN TIME: 0 days 0 hours 1 minutes 5 seconds 837 msec
