
                                 *****************
                                 * O   R   C   A *
                                 *****************

                                            #,                                       
                                            ###                                      
                                            ####                                     
                                            #####                                    
                                            ######                                   
                                           ########,                                 
                                     ,,################,,,,,                         
                               ,,#################################,,                 
                          ,,##########################################,,             
                       ,#########################################, ''#####,          
                    ,#############################################,,   '####,        
                  ,##################################################,,,,####,       
                ,###########''''           ''''###############################       
              ,#####''   ,,,,##########,,,,          '''####'''          '####       
            ,##' ,,,,###########################,,,                        '##       
           ' ,,###''''                  '''############,,,                           
         ,,##''                                '''############,,,,        ,,,,,,###''
      ,#''                                            '''#######################'''  
     '                                                          ''''####''''         
             ,#######,   #######,   ,#######,      ##                                
            ,#'     '#,  ##    ##  ,#'     '#,    #''#        ,####,   ,####,        
            ##       ##  ##   ,#'  ##            #'  '#       #'       #'  '#        
            ##       ##  #######   ##           ,######,      #####,   #    #        
            '#,     ,#'  ##    ##  '#,     ,#' ,#      #,     #,   #   #,  ,#        
             '#######'   ##     ##  '#######'  #'      '#     '####' # '####'        



                #########################################################
                #                        -***-                          #
                #          Department of theory and spectroscopy        #
                #                                                       #
                #                      Frank Neese                      #
                #                                                       #
                #     Directorship, Architecture, Infrastructure        #
                #                    SHARK, DRIVERS                     #
                #        Core code/Algorithms in most modules           #
                #                                                       #
                #        Max Planck Institute fuer Kohlenforschung      #
                #                Kaiser Wilhelm Platz 1                 #
                #                 D-45470 Muelheim/Ruhr                 #
                #                      Germany                          #
                #                                                       #
                #                  All rights reserved                  #
                #                        -***-                          #
                #########################################################


                         Program Version 6.0.1  -  RELEASE   -


 With contributions from (in alphabetic order):
[Max-Planck-Institut fuer Kohlenforschung]                               
  Daniel Aravena         : Magnetic Suceptibility                        
  Michael Atanasov       : Ab Initio Ligand Field Theory (pilot matlab implementation)
  Alexander A. Auer      : GIAO ZORA, VPT2 properties, NMR spectrum      
  Ute Becker             : All parallelization in ORCA, NUMFREQ, NUMCALC 
  Giovanni Bistoni       : ED, misc. LED, open-shell LED, HFLD           
  Martin Brehm           : Molecular dynamics                            
  Dmytro Bykov           : pre 5.0 version of the SCF Hessian            
  Marcos Casanova-Páez   : Triplet and SCS-CIS(D). UHF-(DLPNO)-IP/EA/STEOM-CCSD. UHF-CVS-IP/STEOM-CCSD   
  Vijay G. Chilkuri      : MRCI spin determinant printing, contributions to CSF-ICE 
  Pauline Colinet        : FMM embedding                                 
  Dipayan Datta          : RHF DLPNO-CCSD density                        
  Achintya Kumar Dutta   : EOM-CC, STEOM-CC                              
  Nicolas Foglia         : Exact transition moments, OPA infrastructure, MCD improvements    
  Dmitry Ganyushin       : Spin-Orbit,Spin-Spin,Magnetic field MRCI      
  Miquel Garcia-Rates    : C-PCM and meta-GGA Hessian, CCSD/C-PCM, Gaussian charge scheme 
  Tiago L. C. Gouveia    : GS-ROHF, GS-ROCIS                             
  Yang Guo               : DLPNO-NEVPT2, F12-NEVPT2, CIM, IAO-localization        
  Andreas Hansen         : Spin unrestricted coupled pair/coupled cluster methods 
  Ingolf Harden          : AUTO-CI MPn and infrastructure                
  Benjamin Helmich-Paris : MC-RPA, TRAH-(SCF,CASSCF), AVAS, COSX integrals, SCF dyn. polar. 
  Lee Huntington         : MR-EOM, pCC                                   
  Robert Izsak           : Overlap fitted RIJCOSX, COSX-SCS-MP3, EOM     
  Riya Kayal             : Wick's Theorem for AUTO-CI, AUTO-CI UHF-CCSDT 
  Emily Kempfer          : AUTO-CI, RHF CISDT and CCSDT                  
  Christian Kollmar      : KDIIS, OOCD, Brueckner-CCSD(T), CCSD density, CASPT2, CASPT2-K, improved NEVPT2 
  Axel Koslowski         : Symmetry handling                             
  Simone Kossmann        : meta-GGA functionals, TD-DFT gradient, OOMP2, (MP2 Hessian; deprecated post 5.0) 
  Lucas Lang             : DCDCAS                                        
  Marvin Lechner         : AUTO-CI (C++ implementation), FIC-MRCC        
  Spencer Leger          : CASSCF response                               
  Dagmar Lenk            : GEPOL surface, SMD, ORCA-2-JSON               
  Dimitrios Liakos       : Extrapolation schemes; Compound Job, initial MDCI parallelization 
  Dimitrios Manganas     : Further ROCIS development; embedding schemes. LFT, Crystal Embedding 
  Dimitrios Pantazis     : SARC Basis sets                               
  Anastasios Papadopoulos: AUTO-CI, single reference methods and gradients 
  Taras Petrenko         : pre 6.0 DFT Hessian and TD-DFT gradient, (ASA, deprecated), ECA, 1-Electron XAS/XES, NRVS 
  Peter Pinski           : DLPNO-MP2, DLPNO-MP2 Gradient                 
  Christoph Reimann      : Effective Core Potentials                     
  Marius Retegan         : Local ZFS, SOC                                
  Christoph Riplinger    : Optimizer, TS searches, QM/MM, DLPNO-CCSD(T), (RO)-DLPNO pert. Triples 
  Michael Roemelt        : Original ROCIS implementation                 
  Masaaki Saitow         : Open-shell DLPNO-CCSD energy and density      
  Barbara Sandhoefer     : DKH picture change effects                    
  Kantharuban Sivalingam : CASSCF convergence/infrastructure, NEVPT2 and variants, FIC-MRCI 
  Bernardo de Souza      : ESD, SOC TD-DFT                               
  Georgi L. Stoychev     : AutoAux, RI-MP2 NMR, DLPNO-MP2 response, X2C  
  Van Anh Tran           : RI-MP2 g-tensors                              
  Willem Van den Heuvel  : Paramagnetic NMR                              
  Zikuan Wang            : NOTCH, Electric field optimization            
  Frank Wennmohs         : Technical directorship and infrastructure     
  Hang Xu                : AUTO-CI-Response properties                   
                                                                         
[FACCTs GmbH]                                                            
  Markus Bursch, Miquel Garcia-Rates, Christoph Riplinger, Bernardo de Souza, Georgi L. Stoychev 
                                                                 
  APM, Basis sets (HGBS, AHGBS, def-TZVP (Ac-Lr), def2-XVPD (La-Lu)), CI-OPT, improved COSX, DLPNO-Multilevel,           
  DOCKER, DRACO, updates on ESD, GOAT, IRC, LR-CPCM, MBIS, meta-GGA TD-DFT gradient, ML-optimized integration grids, 
  MM, NACMEs, nearIR, NEB, NEB-TS, NL-DFT gradient (VV10), 2- and 3-layer-ONIOM, interface openCOSMO-RS, QMMM,   
  Crystal-QMMM, SF, symmetry and pop. for TD-DFT, r2SCAN hybrids, SOLVATOR                                   
                                                                         
[Other institutions]                                                     
  V. Asgeirsson          : NEB                                           
  Christoph Bannwarth    : sTDA-DFT, sTD-DFT, PBEh-3c, B97-3c, D3        
  Sebastian Ehlert       : rSCAN, r2SCAN, r2SCAN-3c, D4, dhf basis sets  
  Marvin Friede          : D4 for Fr, Ra, Ac-Lr                          
  Lars Goerigk           : TD-DFT with DH, B97 family of functionals     
  Stefan Grimme          : VdW corrections, initial TS optimization, DFT functionals, gCP, sTDA/sTD-DF 
  Waldemar Hujo          : DFT-NL                                        
  H. Jonsson             : NEB                                           
  Holger Kruse           : gCP                                           
  Marcel Mueller         : wB97X-3c, vDZP basis set                      
  Hagen Neugebauer       : wr2SCAN                                       
  Tobias Risthaus        : range-separated hybrid DFT                    
  Lukas Wittmann         : regularized MP2, r2SCAN double-hybrids, wr2SCAN        
                                                                         
We gratefully acknowledge several colleagues who have allowed us to      
interface, adapt or use parts of their codes:                            
  Ed Valeev, F. Pavosevic, A. Kumar             : LibInt (2-el integral package), F12 methods 
  Garnet Chan, S. Sharma, J. Yang, R. Olivares  : DMRG                   
  Ulf Ekstrom                                   : XCFun DFT Library      
  Mihaly Kallay                                 : mrcc  (arbitrary order and MRCC methods)
  Frank Weinhold                                : gennbo (NPA and NBO analysis)           
  Simon Mueller                                 : openCOSMO-RS                            
  Christopher J. Cramer and Donald G. Truhlar   : smd solvation model                     
  S Lehtola, MJT Oliveira, MAL Marques          : LibXC Library                           
  Liviu Ungur et al                             : ANISO software                          


 Your calculation uses the libint2 library for the computation of 2-el integrals
 For citations please refer to: http://libint.valeyev.net

 Your ORCA version has been built with support for libXC version: 6.2.2
 For citations please refer to: https://libxc.gitlab.io

 This ORCA versions uses:
   CBLAS   interface :  Fast vector & matrix operations
   LAPACKE interface :  Fast linear algebra routines
   SCALAPACK package :  Parallel linear algebra routines
   Shared memory     :  Shared parallel matrices
   BLAS/LAPACK       :  OpenBLAS 0.3.27  USE64BITINT DYNAMIC_ARCH NO_AFFINITY Haswell SINGLE_THREADED
        Core in use  :  Haswell
   Copyright (c) 2011-2014, The OpenBLAS Project


================================================================================

----- Orbital basis set information -----
Your calculation utilizes the basis: cc-pVTZ 
       H, B-Ne : Obtained from the ccRepo (grant-hill.group.shef.ac.uk/ccrepo) Feb. 2017
                 T. H. Dunning, Jr., J. Chem. Phys. 90, 1007 (1989)
            He : Obtained from the ccRepo (grant-hill.group.shef.ac.uk/ccrepo) Feb. 2017
                 D. E. Woon, T. H. Dunning, Jr., J. Chem. Phys. 100, 2975 (1994)
  Li-Be, Na-Mg : Obtained from the ccRepo (grant-hill.group.shef.ac.uk/ccrepo) Feb. 2017
                 B. P. Prascher, D. E. Woon, K. A. Peterson, T. H. Dunning, Jr., A. K. Wilson, Theor. Chem. Acc. 128, 69 (2011)
         Al-Ar : Obtained from the ccRepo (grant-hill.group.shef.ac.uk/ccrepo) Feb. 2017
                 D. E. Woon, T. H. Dunning, Jr., J. Chem. Phys. 98, 1358 (1993)
            Ca : Obtained from the Peterson Research Group Website (tyr0.chem.wsu.edu/~kipeters) Feb. 2017
                 J. Koput, K. A. Peterson, J. Phys. Chem. 106, 9595 (2002)
         Sc-Zn : Obtained from the ccRepo (grant-hill.group.shef.ac.uk/ccrepo) Feb. 2017
                 N. B. Balabanov, K. A. Peterson, J. Chem. Phys. 123, 064107 (2005)
                 N. B. Balabanov, K. A. Peterson, J. Chem. Phys. 125, 074110 (2006)
         Ga-Kr : Obtained from the ccRepo (grant-hill.group.shef.ac.uk/ccrepo) Feb. 2017
                 A. K. Wilson, D. E. Woon, K. A. Peterson, T. H. Dunning, Jr., J. Chem. Phys. 110, 7667 (1999)
             Y : Obtained from the ccRepo (grant-hill.group.shef.ac.uk/ccrepo) Feb. 2017
                 K. A. Peterson, D. Figgen, M. Dolg, H. Stoll, J. Chem. Phys. 126, 124101 (2007)
        Ag, Au : Obtained from the Peterson Research Group Website (tyr0.chem.wsu.edu/~kipeters) Feb. 2017
                 K. A. Peterson, C. Puzzarini, Theor. Chem. Acc. 114, 283 (2005)

================================================================================
                                        WARNINGS
                       Please study these warnings very carefully!
================================================================================

WARNING: Old DensityContainer found on disk!
         Will remove this file - 
         If you want to keep old densities, please start your calculation with a different basename. 


WARNING: Geometry Optimization
  ===> : Switching off AutoStart
         For restart on a previous wavefunction, please use MOREAD

================================================================================
                                       INPUT FILE
================================================================================
NAME = n2o_hf.inp
|  1> ! RHF cc-pVTZ  opt anfreq TightSCF
|  2> * XYZ 0 1
|  3> N 0.000000 0.000000 -1.187431
|  4> N 0.000000 0.000000 -0.074171
|  5> O 0.000000 0.000000 1.103902
|  6> *
|  7> 
|  8>                          ****END OF INPUT****
================================================================================

                       *****************************
                       * Geometry Optimization Run *
                       *****************************

Geometry optimization settings:
Update method            Update   .... BFGS
Choice of coordinates    CoordSys .... (2022) Redundant Internals
Initial Hessian          InHess   .... Almloef's Model
Max. no of cycles        MaxIter  .... 50

Convergence Tolerances:
Energy Change            TolE     ....  5.0000e-06 Eh
Max. Gradient            TolMAXG  ....  3.0000e-04 Eh/bohr
RMS Gradient             TolRMSG  ....  1.0000e-04 Eh/bohr
Max. Displacement        TolMAXD  ....  4.0000e-03 bohr
RMS Displacement         TolRMSD  ....  2.0000e-03 bohr
Strict Convergence                .... False

------------------------------------------------------------------------------
                        ORCA OPTIMIZATION COORDINATE SETUP
------------------------------------------------------------------------------

The optimization will be done in redundant internal coordinates (2022)
Making redundant internal coordinates   ...  (2022 redundants) done
Evaluating the initial hessian          ...  (Almloef) done
Evaluating the coordinates              ...  done
Calculating the B-matrix                .... done
Calculating the G-matrix                .... done
Diagonalizing the G-matrix              .... done
The first mode is                       ....    0
The number of degrees of freedom        ....    4

    -----------------------------------------------------------------
                    Redundant Internal Coordinates


    -----------------------------------------------------------------
         Definition                    Initial Value    Approx d2E/dq
    -----------------------------------------------------------------
      1. B(N   1,N   0)                  1.1133         1.385267   
      2. B(O   2,N   1)                  1.1781         1.091763   
      3. L(N   0,N   1,O   2, 2)       180.0000         0.544038   
      4. L(N   0,N   1,O   2, 1)       180.0000         0.544038   
    -----------------------------------------------------------------

Number of atoms                         .... 3
Number of degrees of freedom            .... 4


         *************************************************************
         *                GEOMETRY OPTIMIZATION CYCLE   1            *
         *************************************************************
---------------------------------
CARTESIAN COORDINATES (ANGSTROEM)
---------------------------------
  N      0.000000    0.000000   -1.187431
  N      0.000000    0.000000   -0.074171
  O      0.000000    0.000000    1.103902

----------------------------
CARTESIAN COORDINATES (A.U.)
----------------------------
  NO LB      ZA    FRAG     MASS         X           Y           Z
   0 N     7.0000    0    14.007    0.000000    0.000000   -2.243919
   1 N     7.0000    0    14.007    0.000000    0.000000   -0.140163
   2 O     8.0000    0    15.999    0.000000    0.000000    2.086072

--------------------------------
INTERNAL COORDINATES (ANGSTROEM)
--------------------------------
 N      0   0   0     0.000000000000     0.00000000     0.00000000
 N      1   0   0     1.113260000000     0.00000000     0.00000000
 O      2   1   0     1.178073000000   179.99999879     0.00000000

---------------------------
INTERNAL COORDINATES (A.U.)
---------------------------
 N      0   0   0     0.000000000000     0.00000000     0.00000000
 N      1   0   0     2.103756515849     0.00000000     0.00000000
 O      2   1   0     2.226235335767   179.99999879     0.00000000

---------------------
BASIS SET INFORMATION
---------------------
There are 2 groups of distinct atoms

 Group   1 Type N   : 18s5p2d1f contracted to 4s3p2d1f pattern {8811/311/11/1}
 Group   2 Type O   : 18s5p2d1f contracted to 4s3p2d1f pattern {8811/311/11/1}

Atom   0N    basis set group =>   1
Atom   1N    basis set group =>   1
Atom   2O    basis set group =>   2
------------------------------------------------------------------------------
                             ORCA STARTUP CALCULATIONS
------------------------------------------------------------------------------
------------------------------------------------------------------------------
                   ___                                                        
                  /   \      - P O W E R E D   B Y -                         
                 /     \                                                     
                 |  |  |   _    _      __       _____    __    __             
                 |  |  |  | |  | |    /  \     |  _  \  |  |  /  |          
                  \  \/   | |  | |   /    \    | | | |  |  | /  /          
                 / \  \   | |__| |  /  /\  \   | |_| |  |  |/  /          
                |  |  |   |  __  | /  /__\  \  |    /   |      \           
                |  |  |   | |  | | |   __   |  |    \   |  |\   \          
                \     /   | |  | | |  |  |  |  | |\  \  |  | \   \       
                 \___/    |_|  |_| |__|  |__|  |_| \__\ |__|  \__/        
                                                                              
                      - O R C A' S   B I G   F R I E N D -                    
                                      &                                       
                       - I N T E G R A L  F E E D E R -                       
                                                                              
 v1 FN, 2020, v2 2021, v3 2022-2024                                           
------------------------------------------------------------------------------


----------------------
SHARK INTEGRAL PACKAGE
----------------------

Number of atoms                             ...      3
Number of basis functions                   ...    108
Number of shells                            ...     48
Maximum angular momentum                    ...      3
Integral batch strategy                     ... SHARK/LIBINT Hybrid
RI-J (if used) integral strategy            ... SPLIT-RIJ (Revised 2003 algorithm where possible)
Printlevel                                  ...      1
Contraction scheme used                     ... PARTIAL GENERAL contraction
Prescreening option                         ... SCHWARTZ
   Thresh                                   ... 2.500e-11
   Tcut                                     ... 2.500e-12
   Tpresel                                  ... 2.500e-12 
Coulomb Range Separation                    ... NOT USED
Exchange Range Separation                   ... NOT USED
Multipole approximations                    ... NOT USED
Finite Nucleus Model                        ... NOT USED
CABS basis                                  ... NOT available
Auxiliary Coulomb fitting basis             ... NOT available
Auxiliary J/K fitting basis                 ... NOT available
Auxiliary Correlation fitting basis         ... NOT available
Auxiliary 'external' fitting basis          ... NOT available

Checking pre-screening integrals            ... done (  0.0 sec) Dimension = 48
Save PGC pre-screening integrals            ... done (  0.0 sec) Dimension = 48
Calculate PGC overlap integrals             ... done (  0.0 sec) Dimension = 30
Calculating pre-screening integrals (ORCA)  ... done (  0.0 sec) Dimension = 30
Check shell pair data                       ... done (  0.0 sec)
Shell pair information
Shell pair cut-off parameter TPreSel        ...   2.5e-12
Total number of shell pairs                 ...      1176
Shell pairs after pre-screening             ...      1021
Total number of primitive shell pairs       ...      1494
Primitive shell pairs kept                  ...      1274
          la=0 lb=0:    332 shell pairs
          la=1 lb=0:    258 shell pairs
          la=1 lb=1:     45 shell pairs
          la=2 lb=0:    170 shell pairs
          la=2 lb=1:     54 shell pairs
          la=2 lb=2:     21 shell pairs
          la=3 lb=0:     90 shell pairs
          la=3 lb=1:     27 shell pairs
          la=3 lb=2:     18 shell pairs
          la=3 lb=3:      6 shell pairs

Calculating one electron integrals          ... done (  0.0 sec)
Calculating Nuclear repulsion               ... done (  0.0 sec) ENN=     61.379291869189 Eh

Diagonalization of the overlap matrix:
Smallest eigenvalue                        ... 6.463e-04
Time for diagonalization                   ...    0.001 sec
Threshold for overlap eigenvalues          ... 1.000e-07
Number of eigenvalues below threshold      ... 0
Time for construction of square roots      ...    0.000 sec
Total time needed                          ...    0.001 sec

-------------------
DFT GRID GENERATION
-------------------

General Integration Accuracy     IntAcc      ... 4.388
Radial Grid Type                 RadialGrid  ... OptM3 with GC (2021)
Angular Grid (max. ang.)         AngularGrid ... 4 (Lebedev-302)
Angular grid pruning method      GridPruning ... 4 (adaptive)
Weight generation scheme         WeightScheme... mBecke (2022)
Basis function cutoff            BFCut       ... 1.0000e-11
Integration weight cutoff        WCut        ... 1.0000e-14
Partially contracted basis set               ... off
Rotationally invariant grid construction     ... off
Angular grids for H and He will be reduced by one unit

Total number of grid points                  ...    18349
Total number of batches                      ...      288
Average number of points per batch           ...       63
Average number of grid points per atom       ...     6116

---------------------
SHARK GRID GENERATION
---------------------

General Integration Accuracy     IntAcc      ... 4.388
Radial Grid Type                 RadialGrid  ... OptM3 with GC (2021)
Angular Grid (max. ang.)         AngularGrid ... 4 (Lebedev-302)
Angular grid pruning method      GridPruning ... 4 (adaptive)
Weight generation scheme         WeightScheme... mBecke (2022)
Basis function cutoff            BFCut       ... 1.0000e-11
Integration weight cutoff        WCut        ... 1.0000e-14
Partially contracted basis set               ... off
Rotationally invariant grid construction     ... off
Angular grids for H and He will be reduced by one unit
Steep s-basis detected: some atoms will have their radial
                        grid points doubled.

Total number of grid points                  ...    37009
Total number of batches                      ...      579
Average number of points per batch           ...       63
Average number of grid points per atom       ...    12336
Initializing property integral containers    ... done (  0.0 sec)

SHARK setup successfully completed in   0.4 seconds

Maximum memory used throughout the entire STARTUP-calculation: 18.4 MB
-------------------------------------------------------------------------------
                                 ORCA GUESS
                   Start orbitals & Density for SCF / CASSCF
-------------------------------------------------------------------------------

------------
SCF SETTINGS
------------
Hamiltonian:
 Ab initio Hamiltonian  Method          .... Hartree-Fock(GTOs)


General Settings:
 Integral files         IntName         .... n2o_hf
 Hartree-Fock type      HFTyp           .... RHF
 Total Charge           Charge          ....    0
 Multiplicity           Mult            ....    1
 Number of Electrons    NEL             ....   22
 Basis Dimension        Dim             ....   90
 Nuclear Repulsion      ENuc            ....     61.3792918692 Eh

Convergence Acceleration:
 AO-DIIS                CNVDIIS         .... on
   Start iteration      DIISMaxIt       ....    12
   Startup error        DIISStart       ....  0.200000
   # of expansion vecs  DIISMaxEq       ....     5
   Bias factor          DIISBfac        ....   1.050
   Max. coefficient     DIISMaxC        ....  10.000
 MO-DIIS                CNVKDIIS        .... off
 Trust-Rad. Augm. Hess. CNVTRAH         .... auto
   Auto Start mean grad. ratio tolernc. ....  1.125000
   Auto Start start iteration           ....    50
   Auto Start num. interpolation iter.  ....    10
   Max. Number of Micro iterations      ....    24
   Max. Number of Macro iterations      .... Maxiter - #DIIS iter
   Number of Davidson start vectors     ....     2
   Converg. threshold    (grad. norm)   ....   1.000e-05
   Grad. Scal. Fac. for Micro threshold ....   0.100
   Minimum threshold for Micro iter.    ....   1.000e-02
   NR start threshold (gradient norm)   ....   1.000e-04
   Initial trust radius                 ....   0.400
   Minimum AH scaling param. (alpha)    ....   1.000
   Maximum AH scaling param. (alpha)    .... 1000.000
   Quad. conv. algorithm                .... NR
   White noise on init. David. guess    .... on
   Maximum white noise                  ....   0.010
   Pseudo random numbers                .... off
   Inactive MOs                         .... canonical
   Orbital update algorithm             .... Taylor
   Preconditioner                       .... Diag
   Full preconditioner red. dimension   ....   250
 SOSCF                  CNVSOSCF        .... on
   Start iteration      SOSCFMaxIt      ....   150
   Startup grad/error   SOSCFStart      ....  0.003300
   Hessian update       SOSCFHessUp     .... L-BFGS
 Level Shifting         CNVShift        .... on
   Level shift para.    LevelShift      ....    0.2500
   Turn off err/grad.   ShiftErr        ....    0.0010
 Zerner damping         CNVZerner       .... off
 Static damping         CNVDamp         .... on
   Fraction old density DampFac         ....    0.7000
   Max. Damping (<1)    DampMax         ....    0.9800
   Min. Damping (>=0)   DampMin         ....    0.0000
   Turn off err/grad.   DampErr         ....    0.1000

SCF Procedure:
 Maximum # iterations   MaxIter         ....   125
 SCF integral mode      SCFMode         .... Direct
   Integral package                     .... SHARK and LIBINT hybrid scheme
 Reset frequency        DirectResetFreq ....    20
 Integral Threshold     Thresh          ....  2.500e-11 Eh
 Primitive CutOff       TCut            ....  2.500e-12 Eh

Convergence Tolerance:
 Convergence Check Mode ConvCheckMode   .... Total+1el-Energy
 Convergence forced     ConvForced      .... 0
 Energy Change          TolE            ....  1.000e-08 Eh
 1-El. energy change                    ....  1.000e-05 Eh
 Orbital Gradient       TolG            ....  1.000e-05
 Orbital Rotation angle TolX            ....  1.000e-05
 DIIS Error             TolErr          ....  5.000e-07

------------------------------
INITIAL GUESS: MODEL POTENTIAL
------------------------------
Loading Hartree-Fock densities                     ... done
Calculating cut-offs                               ... done
Initializing the effective Hamiltonian             ... done
Setting up the integral package (SHARK)            ... done
Starting the Coulomb interaction                   ... done (   0.0 sec)
Making the grid                                    ... done (   0.0 sec)
Mapping shells                                     ... done
Starting the XC term evaluation                    ... done (   0.0 sec)
Transforming the Hamiltonian                       ... done (   0.0 sec)
Diagonalizing the Hamiltonian                      ... done (   0.0 sec)
Back transforming the eigenvectors                 ... done (   0.0 sec)
Now organizing SCF variables                       ... done
                      ------------------
                      INITIAL GUESS DONE (   0.0 sec)
                      ------------------
             **** ENERGY FILE WAS UPDATED (n2o_hf.en.tmp) ****
Finished Guess after   0.1 sec
Maximum memory used throughout the entire GUESS-calculation: 7.9 MB

-------------------------------------------------------------------------------------------
                                      ORCA LEAN-SCF
                              memory conserving SCF solver
-------------------------------------------------------------------------------------------

----------------------------------------D-I-I-S--------------------------------------------
Iteration    Energy (Eh)           Delta-E    RMSDP     MaxDP     DIISErr   Damp  Time(sec)
-------------------------------------------------------------------------------------------
               ***  Starting incremental Fock matrix formation  ***
    1    -183.6518760644581789     0.00e+00  1.58e-03  2.33e-02  2.09e-01  0.700   0.4
    2    -183.6869912596393419    -3.51e-02  1.14e-03  1.65e-02  1.47e-01  0.700   0.4
                               ***Turning on AO-DIIS***
    3    -183.7074140954742916    -2.04e-02  6.78e-04  1.21e-02  1.08e-01  0.700   0.4
    4    -183.7207649763653308    -1.34e-02  4.96e-04  8.65e-03  7.71e-02  0.700   0.4
    5    -183.7300857508110425    -9.32e-03  1.25e-03  2.07e-02  5.43e-02  0.000   0.4
    6    -183.7525846688178035    -2.25e-02  1.55e-04  2.62e-03  8.14e-03  0.000   0.4
                              *** Initializing SOSCF ***
---------------------------------------S-O-S-C-F--------------------------------------
Iteration    Energy (Eh)           Delta-E    RMSDP     MaxDP     MaxGrad    Time(sec)
--------------------------------------------------------------------------------------
    7    -183.7526945115545800    -1.10e-04  7.28e-05  8.64e-04  2.46e-03     0.4
               *** Restarting incremental Fock matrix formation ***
    8    -183.7527188588461513    -2.43e-05  5.24e-05  6.89e-04  7.94e-04     0.4
    9    -183.7527266082029200    -7.75e-06  5.45e-05  7.61e-04  3.56e-04     0.4
   10    -183.7527293511521975    -2.74e-06  1.29e-05  1.54e-04  1.52e-04     0.4
   11    -183.7527296260660137    -2.75e-07  3.67e-06  5.10e-05  4.69e-05     0.4
   12    -183.7527296431794070    -1.71e-08  1.33e-06  1.73e-05  2.23e-05     0.4
   13    -183.7527296502602780    -7.08e-09  2.92e-07  7.54e-06  2.35e-06     0.4
                 **** Energy Check signals convergence ****

               *****************************************************
               *                     SUCCESS                       *
               *           SCF CONVERGED AFTER  13 CYCLES          *
               *****************************************************

             **** ENERGY FILE WAS UPDATED (n2o_hf.en.tmp) ****

----------------
TOTAL SCF ENERGY
----------------

Total Energy       :       -183.75272965026028 Eh           -5000.16598 eV

Components:
Nuclear Repulsion  :         61.37929186918852 Eh            1670.21544 eV
Electronic Energy  :       -245.13202151944881 Eh           -6670.38142 eV
One Electron Energy:       -371.71655333975349 Eh          -10114.92165 eV
Two Electron Energy:        126.58453182030468 Eh            3444.54023 eV

Virial components:
Potential Energy   :       -367.22107980677799 Eh           -9992.59360 eV
Kinetic Energy     :        183.46835015651772 Eh            4992.42762 eV
Virial Ratio       :          2.00155001935484

---------------
SCF CONVERGENCE
---------------

  Last Energy change         ...    7.0809e-09  Tolerance :   1.0000e-08
  Last MAX-Density change    ...    7.5382e-06  Tolerance :   1.0000e-07
  Last RMS-Density change    ...    2.9165e-07  Tolerance :   5.0000e-09
  Last DIIS Error            ...    2.4562e-03  Tolerance :   5.0000e-07
  Last Orbital Gradient      ...    2.3450e-06  Tolerance :   1.0000e-05
  Last Orbital Rotation      ...    2.1619e-06  Tolerance :   1.0000e-05


----------------
ORBITAL ENERGIES
----------------

  NO   OCC          E(Eh)            E(eV) 
   0   2.0000     -20.651287      -561.9501 
   1   2.0000     -15.840593      -431.0445 
   2   2.0000     -15.691032      -426.9747 
   3   2.0000      -1.618707       -44.0473 
   4   2.0000      -1.431094       -38.9420 
   5   2.0000      -0.829365       -22.5682 
   6   2.0000      -0.766962       -20.8701 
   7   2.0000      -0.766962       -20.8701 
   8   2.0000      -0.696264       -18.9463 
   9   2.0000      -0.490740       -13.3537 
  10   2.0000      -0.490740       -13.3537 
  11   0.0000       0.162871         4.4319 
  12   0.0000       0.162871         4.4319 
  13   0.0000       0.292820         7.9680 
  14   0.0000       0.424469        11.5504 
  15   0.0000       0.548770        14.9328 
  16   0.0000       0.548770        14.9328 
  17   0.0000       0.608499        16.5581 
  18   0.0000       0.663782        18.0624 
  19   0.0000       0.687189        18.6994 
  20   0.0000       0.687189        18.6994 
  21   0.0000       0.738097        20.0846 
*Only the first 10 virtual orbitals were printed.

                    ********************************
                    * MULLIKEN POPULATION ANALYSIS *
                    ********************************

-----------------------
MULLIKEN ATOMIC CHARGES
-----------------------
   0 N :   -0.145348
   1 N :    0.436600
   2 O :   -0.291252
Sum of atomic charges:   -0.0000000

--------------------------------
MULLIKEN REDUCED ORBITAL CHARGES
--------------------------------
  0 N s       :     3.800156  s :     3.800156
      pz      :     1.088470  p :     3.253445
      px      :     1.082487
      py      :     1.082487
      dz2     :     0.024005  d :     0.085022
      dxz     :     0.030508
      dyz     :     0.030508
      dx2y2   :     0.000000
      dxy     :     0.000000
      f0      :     0.002186  f :     0.006726
      f+1     :     0.002270
      f-1     :     0.002270
      f+2     :     0.000000
      f-2     :     0.000000
      f+3     :     0.000000
      f-3     :     0.000000

  1 N s       :     3.193747  s :     3.193747
      pz      :     0.966320  p :     3.127431
      px      :     1.080556
      py      :     1.080556
      dz2     :     0.032711  d :     0.225322
      dxz     :     0.096306
      dyz     :     0.096306
      dx2y2   :     0.000000
      dxy     :     0.000000
      f0      :     0.005046  f :     0.016900
      f+1     :     0.005927
      f-1     :     0.005927
      f+2     :     0.000000
      f-2     :     0.000000
      f+3     :     0.000000
      f-3     :     0.000000

  2 O s       :     3.790539  s :     3.790539
      pz      :     1.070129  p :     4.450371
      px      :     1.690121
      py      :     1.690121
      dz2     :     0.024444  d :     0.046552
      dxz     :     0.011054
      dyz     :     0.011054
      dx2y2   :     0.000000
      dxy     :     0.000000
      f0      :     0.002247  f :     0.003790
      f+1     :     0.000771
      f-1     :     0.000771
      f+2     :     0.000000
      f-2     :     0.000000
      f+3     :     0.000000
      f-3     :     0.000000



                     *******************************
                     * LOEWDIN POPULATION ANALYSIS *
                     *******************************

----------------------
LOEWDIN ATOMIC CHARGES
----------------------
   0 N :    0.008692
   1 N :    0.021301
   2 O :   -0.029994

-------------------------------
LOEWDIN REDUCED ORBITAL CHARGES
-------------------------------
  0 N s       :     3.362253  s :     3.362253
      pz      :     1.336175  p :     3.417295
      px      :     1.040560
      py      :     1.040560
      dz2     :     0.079535  d :     0.182990
      dxz     :     0.051727
      dyz     :     0.051727
      dx2y2   :     0.000000
      dxy     :     0.000000
      f0      :     0.010995  f :     0.028770
      f+1     :     0.008888
      f-1     :     0.008888
      f+2     :     0.000000
      f-2     :     0.000000
      f+3     :     0.000000
      f-3     :     0.000000

  1 N s       :     2.949491  s :     2.949491
      pz      :     1.284111  p :     3.299578
      px      :     1.007733
      py      :     1.007733
      dz2     :     0.168238  d :     0.683260
      dxz     :     0.257511
      dyz     :     0.257511
      dx2y2   :     0.000000
      dxy     :     0.000000
      f0      :     0.020903  f :     0.046370
      f+1     :     0.012734
      f-1     :     0.012734
      f+2     :     0.000000
      f-2     :     0.000000
      f+3     :     0.000000
      f-3     :     0.000000

  2 O s       :     3.475483  s :     3.475483
      pz      :     1.245174  p :     4.429094
      px      :     1.591960
      py      :     1.591960
      dz2     :     0.061476  d :     0.113186
      dxz     :     0.025855
      dyz     :     0.025855
      dx2y2   :     0.000000
      dxy     :     0.000000
      f0      :     0.006167  f :     0.012231
      f+1     :     0.003032
      f-1     :     0.003032
      f+2     :     0.000000
      f-2     :     0.000000
      f+3     :     0.000000
      f-3     :     0.000000



                      *****************************
                      * MAYER POPULATION ANALYSIS *
                      *****************************

  NA   - Mulliken gross atomic population
  ZA   - Total nuclear charge
  QA   - Mulliken gross atomic charge
  VA   - Mayer's total valence
  BVA  - Mayer's bonded valence
  FA   - Mayer's free valence

  ATOM       NA         ZA         QA         VA         BVA        FA
  0 N      7.1453     7.0000    -0.1453     2.8227     2.8227     0.0000
  1 N      6.5634     7.0000     0.4366     4.2590     4.2590    -0.0000
  2 O      8.2913     8.0000    -0.2913     2.0065     2.0065    -0.0000

  Mayer bond orders larger than 0.100000
B(  0-N ,  1-N ) :   2.5376 B(  0-N ,  2-O ) :   0.2851 B(  1-N ,  2-O ) :   1.7214 


-------
TIMINGS
-------

Total SCF time: 0 days 0 hours 0 min 5 sec 

Total time                  ....       5.399 sec
Sum of individual times     ....       5.385 sec  ( 99.8%)

SCF preparation             ....       0.029 sec  (  0.5%)
Fock matrix formation       ....       5.325 sec  ( 98.6%)
  Startup                   ....       0.001 sec  (  0.0% of F)
  Coulomb+Exchange Fock     ....       5.320 sec  ( 99.9% of F)
Diagonalization             ....       0.000 sec  (  0.0%)
Density matrix formation    ....       0.006 sec  (  0.1%)
Total Energy calculation    ....       0.001 sec  (  0.0%)
Population analysis         ....       0.002 sec  (  0.0%)
Orbital Transformation      ....       0.004 sec  (  0.1%)
Orbital Orthonormalization  ....       0.000 sec  (  0.0%)
DIIS solution               ....       0.013 sec  (  0.2%)
SOSCF solution              ....       0.006 sec  (  0.1%)
Finished LeanSCF after   5.4 sec

Maximum memory used throughout the entire LEANSCF-calculation: 12.1 MB

------------------------------------------------------------------------------
                         ORCA PROPERTY INTEGRAL CALCULATIONS
------------------------------------------------------------------------------

GBWName                                   ... n2o_hf.gbw
Number of atoms                           ...      3
Number of basis functions                 ...    108
Max core memory                           ...   1024 MB

Dipole integrals                          ... YES
Quadrupole integrals                      ...  NO
Linear momentum integrals                 ...  NO
Angular momentum integrals                ...  NO
Higher moments length integrals           ...  NO
Higher moments velocity integrals         ...  NO
Kinetic energy integrals                  ...  NO
GIAO right hand sides                     ...  NO
GIAO dipole derivative integrals          ...  NO
SOC integrals                             ...  NO
EPR diamagnetic integrals (GIAO)          ...  NO
EPR gauge integrals                       ...  NO
Field gradient integrals                  ...  NO (   0 nuclei)
Spin-dipole/Fermi contact integrals       ...  NO (   0 nuclei)
Contact density integrals                 ...  NO (   0 nuclei)
Nucleus-orbit integrals                   ...  NO (   0 nuclei)
Geometric perturbations                   ...  NO (   3 nuclei)

Choice of electric origin   ... Center of mass
Position of electric origin ... (  0.0000,  0.0000, -0.0004) 
Choice of magnetic origin   ... GIAO
Position of magnetic origin ... (  0.0000,  0.0000,  0.0000) 

Calculating integrals                     ... Electric Dipole (Length)     done (  0.0 sec)

Property integrals calculated in   0.0 sec

Maximum memory used throughout the entire PROPINT-calculation: 8.0 MB

-------------------------   --------------------
FINAL SINGLE POINT ENERGY      -183.752729650260
-------------------------   --------------------

------------------------------------------------------------------------------
                         ORCA SCF GRADIENT CALCULATION
------------------------------------------------------------------------------

Nuc. rep. gradient        (SHARK) ... done (  0.0 sec)
HCore & Overlap gradient  (SHARK) ... done (  0.0 sec)
Two-electron gradient     (SHARK) ... done (  2.7 sec)

------------------
CARTESIAN GRADIENT
------------------

   1   N   :    0.000000000   -0.000000000   -0.092345522
   2   N   :   -0.000000000    0.000000000    0.070536187
   3   O   :    0.000000000   -0.000000000    0.021809335

Difference to translation invariance:
           :   -0.0000000000    0.0000000000    0.0000000000

Difference to rotation invariance:
           :    0.0000000000   -0.0000000000    0.0000000000

Norm of the Cartesian gradient     ...    0.1182315368
RMS gradient                       ...    0.0394105123
MAX gradient                       ...    0.0923455222

-------
TIMINGS
-------

Total SCF gradient time     ....        2.731 sec

Densities                   ....       0.000 sec  (  0.0%)
One electron gradient       ....       0.014 sec  (  0.5%)
Two electron gradient       ....       2.717 sec  ( 99.5%)

Maximum memory used throughout the entire SCFGRAD-calculation: 26.5 MB
------------------------------------------------------------------------------
                         ORCA GEOMETRY RELAXATION STEP
------------------------------------------------------------------------------

Reading the OPT-File                    .... done
Getting information on internals        .... done
Copying old internal coords+grads       .... done
Making the new internal coordinates     .... (2022 redundants) done
Validating the new internal coordinates .... (2022 redundants) done
Calculating the B-matrix                .... done
Calculating the G,G- and P matrices     .... done
Transforming gradient to internals      .... done
Projecting the internal gradient        .... done
Number of atoms                         ....   3
Number of internal coordinates          ....   4
Current Energy                          ....  -183.752729650 Eh
Current gradient norm                   ....     0.118231537 Eh/bohr
Maximum allowed component of the step   ....  0.300
Current trust radius                    ....  0.300
Evaluating the initial hessian          ....  (Almloef) done
Projecting the Hessian                  .... done
Forming the augmented Hessian           .... done
Diagonalizing the augmented Hessian     .... done
Last element of RFO vector              ....  0.997610386
Lowest eigenvalues of augmented Hessian:
 -0.006560047  0.544038227  0.544038227  1.092187234
Length of the computed step             ....  0.069256137
The final length of the internal step   ....  0.069256137
Converting the step to Cartesian space:
 Initial RMS(Int)=    0.0346280685
Transforming coordinates:
 Iter   0:  RMS(Cart)=    0.0212809936 RMS(Int)=    0.0346280685
done
Storing new coordinates                 .... done

                                .--------------------.
          ----------------------|Geometry convergence|-------------------------
          Item                value                   Tolerance       Converged
          ---------------------------------------------------------------------
          RMS gradient        0.0474429725            0.0001000000      NO
          MAX gradient        0.0923455222            0.0003000000      NO
          RMS step            0.0346280685            0.0020000000      NO
          MAX step            0.0663484323            0.0040000000      NO
          ........................................................
          Max(Bonds)      0.0351      Max(Angles)    0.00
          Max(Dihed)        0.00      Max(Improp)    0.00
          ---------------------------------------------------------------------

The optimization has not yet converged - more geometry cycles are needed


    ---------------------------------------------------------------------------
                         Redundant Internal Coordinates
                            (Angstroem and degrees)

        Definition                    Value    dE/dq     Step     New-Value
    ----------------------------------------------------------------------------
     1. B(N   1,N   0)                1.1133  0.092346 -0.0351    1.0781   
     2. B(O   2,N   1)                1.1781  0.021809 -0.0105    1.1676   
     3. L(N   0,N   1,O   2, 2)       180.00 -0.000000    0.00    180.00   
     4. L(N   0,N   1,O   2, 1)       180.00 -0.000000    0.00    180.00   
    ----------------------------------------------------------------------------

Geometry step timings:
Preparation and reading OPT file:      0.000 s (15.208 %)
Internal coordinates            :      0.000 s ( 4.406 %)
B/P matrices and projection     :      0.000 s (13.760 %)
Hessian update/contruction      :      0.000 s (13.096 %)
Making the step                 :      0.000 s ( 9.415 %)
Converting the step to Cartesian:      0.000 s ( 4.285 %)
Storing new data                :      0.000 s ( 4.104 %)
Checking convergence            :      0.000 s ( 0.060 %)
Final printing                  :      0.001 s (35.244 %)
Total time                      :      0.002 s

Time for energy+gradient        :      8.779 s
Time for complete geometry iter :      8.801 s

         *************************************************************
         *                GEOMETRY OPTIMIZATION CYCLE   2            *
         *************************************************************
---------------------------------
CARTESIAN COORDINATES (ANGSTROEM)
---------------------------------
  N     -0.000000    0.000000   -1.160522
  N      0.000000   -0.000000   -0.082372
  O     -0.000000    0.000000    1.085193

----------------------------
CARTESIAN COORDINATES (A.U.)
----------------------------
  NO LB      ZA    FRAG     MASS         X           Y           Z
   0 N     7.0000    0    14.007   -0.000000    0.000000   -2.193068
   1 N     7.0000    0    14.007    0.000000   -0.000000   -0.155660
   2 O     8.0000    0    15.999   -0.000000    0.000000    2.050718

--------------------------------
INTERNAL COORDINATES (ANGSTROEM)
--------------------------------
 N      0   0   0     0.000000000000     0.00000000     0.00000000
 N      1   0   0     1.078149921831     0.00000000     0.00000000
 O      2   1   0     1.167565160315   180.00000000     0.00000000

---------------------------
INTERNAL COORDINATES (A.U.)
---------------------------
 N      0   0   0     0.000000000000     0.00000000     0.00000000
 N      1   0   0     2.037408083569     0.00000000     0.00000000
 O      2   1   0     2.206378396504   180.00000000     0.00000000

------------------------------------------------------------------------------
                   ___                                                        
                  /   \      - P O W E R E D   B Y -                         
                 /     \                                                     
                 |  |  |   _    _      __       _____    __    __             
                 |  |  |  | |  | |    /  \     |  _  \  |  |  /  |          
                  \  \/   | |  | |   /    \    | | | |  |  | /  /          
                 / \  \   | |__| |  /  /\  \   | |_| |  |  |/  /          
                |  |  |   |  __  | /  /__\  \  |    /   |      \           
                |  |  |   | |  | | |   __   |  |    \   |  |\   \          
                \     /   | |  | | |  |  |  |  | |\  \  |  | \   \       
                 \___/    |_|  |_| |__|  |__|  |_| \__\ |__|  \__/        
                                                                              
                      - O R C A' S   B I G   F R I E N D -                    
                                      &                                       
                       - I N T E G R A L  F E E D E R -                       
                                                                              
 v1 FN, 2020, v2 2021, v3 2022-2024                                           
------------------------------------------------------------------------------


----------------------
SHARK INTEGRAL PACKAGE
----------------------

Number of atoms                             ...      3
Number of basis functions                   ...    108
Number of shells                            ...     48
Maximum angular momentum                    ...      3
Integral batch strategy                     ... SHARK/LIBINT Hybrid
RI-J (if used) integral strategy            ... SPLIT-RIJ (Revised 2003 algorithm where possible)
Printlevel                                  ...      1
Contraction scheme used                     ... PARTIAL GENERAL contraction
Prescreening option                         ... SCHWARTZ
   Thresh                                   ... 2.500e-11
   Tcut                                     ... 2.500e-12
   Tpresel                                  ... 2.500e-12 
Coulomb Range Separation                    ... NOT USED
Exchange Range Separation                   ... NOT USED
Multipole approximations                    ... NOT USED
Finite Nucleus Model                        ... NOT USED
CABS basis                                  ... NOT available
Auxiliary Coulomb fitting basis             ... NOT available
Auxiliary J/K fitting basis                 ... NOT available
Auxiliary Correlation fitting basis         ... NOT available
Auxiliary 'external' fitting basis          ... NOT available

Checking pre-screening integrals            ... done (  0.0 sec) Dimension = 48
Save PGC pre-screening integrals            ... done (  0.0 sec) Dimension = 48
Calculate PGC overlap integrals             ... done (  0.0 sec) Dimension = 30
Calculating pre-screening integrals (ORCA)  ... done (  0.1 sec) Dimension = 30
Check shell pair data                       ... done (  0.0 sec)
Shell pair information
Shell pair cut-off parameter TPreSel        ...   2.5e-12
Total number of shell pairs                 ...      1176
Shell pairs after pre-screening             ...      1025
Total number of primitive shell pairs       ...      1494
Primitive shell pairs kept                  ...      1279
          la=0 lb=0:    334 shell pairs
          la=1 lb=0:    259 shell pairs
          la=1 lb=1:     45 shell pairs
          la=2 lb=0:    171 shell pairs
          la=2 lb=1:     54 shell pairs
          la=2 lb=2:     21 shell pairs
          la=3 lb=0:     90 shell pairs
          la=3 lb=1:     27 shell pairs
          la=3 lb=2:     18 shell pairs
          la=3 lb=3:      6 shell pairs

Calculating one electron integrals          ... done (  0.0 sec)
Calculating Nuclear repulsion               ... done (  0.0 sec) ENN=     62.626886741830 Eh

Diagonalization of the overlap matrix:
Smallest eigenvalue                        ... 5.578e-04
Time for diagonalization                   ...    0.001 sec
Threshold for overlap eigenvalues          ... 1.000e-07
Number of eigenvalues below threshold      ... 0
Time for construction of square roots      ...    0.000 sec
Total time needed                          ...    0.001 sec

-------------------
DFT GRID GENERATION
-------------------

General Integration Accuracy     IntAcc      ... 4.388
Radial Grid Type                 RadialGrid  ... OptM3 with GC (2021)
Angular Grid (max. ang.)         AngularGrid ... 4 (Lebedev-302)
Angular grid pruning method      GridPruning ... 4 (adaptive)
Weight generation scheme         WeightScheme... mBecke (2022)
Basis function cutoff            BFCut       ... 1.0000e-11
Integration weight cutoff        WCut        ... 1.0000e-14
Partially contracted basis set               ... off
Rotationally invariant grid construction     ... off
Angular grids for H and He will be reduced by one unit

Total number of grid points                  ...    18344
Total number of batches                      ...      289
Average number of points per batch           ...       63
Average number of grid points per atom       ...     6115

---------------------
SHARK GRID GENERATION
---------------------

General Integration Accuracy     IntAcc      ... 4.388
Radial Grid Type                 RadialGrid  ... OptM3 with GC (2021)
Angular Grid (max. ang.)         AngularGrid ... 4 (Lebedev-302)
Angular grid pruning method      GridPruning ... 4 (adaptive)
Weight generation scheme         WeightScheme... mBecke (2022)
Basis function cutoff            BFCut       ... 1.0000e-11
Integration weight cutoff        WCut        ... 1.0000e-14
Partially contracted basis set               ... off
Rotationally invariant grid construction     ... off
Angular grids for H and He will be reduced by one unit
Steep s-basis detected: some atoms will have their radial
                        grid points doubled.

Total number of grid points                  ...    37000
Total number of batches                      ...      580
Average number of points per batch           ...       63
Average number of grid points per atom       ...    12333
Initializing property integral containers    ... done (  0.0 sec)

SHARK setup successfully completed in   0.5 seconds

Maximum memory used throughout the entire STARTUP-calculation: 18.5 MB
Occupation numbers will be reassigned to an Aufbau configuration
             **** ENERGY FILE WAS UPDATED (n2o_hf.en.tmp) ****
Finished Guess after   0.0 sec
Maximum memory used throughout the entire GUESS-calculation: 7.9 MB
----------------------------------------D-I-I-S--------------------------------------------
Iteration    Energy (Eh)           Delta-E    RMSDP     MaxDP     DIISErr   Damp  Time(sec)
-------------------------------------------------------------------------------------------
               ***  Starting incremental Fock matrix formation  ***
    1    -183.7541675446470038     0.00e+00  2.06e-04  3.75e-03  2.64e-02  0.700   0.5
    2    -183.7545788796244608    -4.11e-04  1.67e-04  2.71e-03  1.95e-02  0.700   0.4
                               ***Turning on AO-DIIS***
    3    -183.7548737014728317    -2.95e-04  1.40e-04  2.26e-03  1.41e-02  0.700   0.4
    4    -183.7550872094675185    -2.14e-04  3.74e-04  5.93e-03  1.04e-02  0.000   0.4
                              *** Initializing SOSCF ***
---------------------------------------S-O-S-C-F--------------------------------------
Iteration    Energy (Eh)           Delta-E    RMSDP     MaxDP     MaxGrad    Time(sec)
--------------------------------------------------------------------------------------
    5    -183.7556507199021212    -5.64e-04  5.62e-05  8.44e-04  1.67e-03     0.4
               *** Restarting incremental Fock matrix formation ***
    6    -183.7556563778808538    -5.66e-06  2.83e-05  6.77e-04  2.22e-04     0.4
    7    -183.7556570925507344    -7.15e-07  2.06e-05  4.24e-04  1.00e-04     0.4
    8    -183.7556572601496043    -1.68e-07  4.91e-06  9.71e-05  3.39e-05     0.4
    9    -183.7556572799142884    -1.98e-08  1.23e-06  2.62e-05  1.40e-05     0.4
   10    -183.7556572810488831    -1.13e-09  3.49e-07  5.47e-06  5.96e-06     0.4
                 **** Energy Check signals convergence ****

               *****************************************************
               *                     SUCCESS                       *
               *           SCF CONVERGED AFTER  10 CYCLES          *
               *****************************************************

             **** ENERGY FILE WAS UPDATED (n2o_hf.en.tmp) ****

----------------
TOTAL SCF ENERGY
----------------

Total Energy       :       -183.75565728104888 Eh           -5000.24564 eV

Components:
Nuclear Repulsion  :         62.62688674182964 Eh            1704.16423 eV
Electronic Energy  :       -246.38254402287853 Eh           -6704.40987 eV
One Electron Energy:       -374.15097691622441 Eh          -10181.16568 eV
Two Electron Energy:        127.76843289334587 Eh            3476.75581 eV

Virial components:
Potential Energy   :       -367.50785535798627 Eh          -10000.39715 eV
Kinetic Energy     :        183.75219807693739 Eh            5000.15151 eV
Virial Ratio       :          2.00001882537541

---------------
SCF CONVERGENCE
---------------

  Last Energy change         ...    1.1346e-09  Tolerance :   1.0000e-08
  Last MAX-Density change    ...    5.4655e-06  Tolerance :   1.0000e-07
  Last RMS-Density change    ...    3.4942e-07  Tolerance :   5.0000e-09
  Last DIIS Error            ...    1.6678e-03  Tolerance :   5.0000e-07
  Last Orbital Gradient      ...    5.9634e-06  Tolerance :   1.0000e-05
  Last Orbital Rotation      ...    3.9156e-06  Tolerance :   1.0000e-05


Total SCF time: 0 days 0 hours 0 min 4 sec 
Finished LeanSCF after   4.1 sec

Maximum memory used throughout the entire LEANSCF-calculation: 12.3 MB

------------------------------------------------------------------------------
                         ORCA PROPERTY INTEGRAL CALCULATIONS
------------------------------------------------------------------------------

GBWName                                   ... n2o_hf.gbw
Number of atoms                           ...      3
Number of basis functions                 ...    108
Max core memory                           ...   1024 MB

Dipole integrals                          ... YES
Quadrupole integrals                      ...  NO
Linear momentum integrals                 ...  NO
Angular momentum integrals                ...  NO
Higher moments length integrals           ...  NO
Higher moments velocity integrals         ...  NO
Kinetic energy integrals                  ...  NO
GIAO right hand sides                     ...  NO
GIAO dipole derivative integrals          ...  NO
SOC integrals                             ...  NO
EPR diamagnetic integrals (GIAO)          ...  NO
EPR gauge integrals                       ...  NO
Field gradient integrals                  ...  NO (   0 nuclei)
Spin-dipole/Fermi contact integrals       ...  NO (   0 nuclei)
Contact density integrals                 ...  NO (   0 nuclei)
Nucleus-orbit integrals                   ...  NO (   0 nuclei)
Geometric perturbations                   ...  NO (   3 nuclei)

Choice of electric origin   ... Center of mass
Position of electric origin ... ( -0.0000,  0.0000, -0.0020) 
Choice of magnetic origin   ... GIAO
Position of magnetic origin ... (  0.0000,  0.0000,  0.0000) 

Calculating integrals                     ... Electric Dipole (Length)     done (  0.0 sec)

Property integrals calculated in   0.0 sec

Maximum memory used throughout the entire PROPINT-calculation: 8.0 MB

-------------------------   --------------------
FINAL SINGLE POINT ENERGY      -183.755657281049
-------------------------   --------------------

------------------------------------------------------------------------------
                         ORCA SCF GRADIENT CALCULATION
------------------------------------------------------------------------------

Nuc. rep. gradient        (SHARK) ... done (  0.0 sec)
HCore & Overlap gradient  (SHARK) ... done (  0.0 sec)
Two-electron gradient     (SHARK) ... done (  2.7 sec)

------------------
CARTESIAN GRADIENT
------------------

   1   N   :   -0.000000000    0.000000000    0.014283615
   2   N   :    0.000000000   -0.000000000   -0.011426521
   3   O   :   -0.000000000    0.000000000   -0.002857095

Difference to translation invariance:
           :   -0.0000000000    0.0000000000   -0.0000000000

Difference to rotation invariance:
           :   -0.0000000000    0.0000000000    0.0000000000

Norm of the Cartesian gradient     ...    0.0185135093
RMS gradient                       ...    0.0061711698
MAX gradient                       ...    0.0142836152

-------
TIMINGS
-------

Total SCF gradient time     ....        2.729 sec

Densities                   ....       0.000 sec  (  0.0%)
One electron gradient       ....       0.013 sec  (  0.5%)
Two electron gradient       ....       2.716 sec  ( 99.5%)

Maximum memory used throughout the entire SCFGRAD-calculation: 26.6 MB
------------------------------------------------------------------------------
                         ORCA GEOMETRY RELAXATION STEP
------------------------------------------------------------------------------

Reading the OPT-File                    .... done
Getting information on internals        .... done
Copying old internal coords+grads       .... done
Making the new internal coordinates     .... (2022 redundants) done
Validating the new internal coordinates .... (2022 redundants) done
Calculating the B-matrix                .... done
Calculating the G,G- and P matrices     .... done
Transforming gradient to internals      .... done
Projecting the internal gradient        .... done
Number of atoms                         ....   3
Number of internal coordinates          ....   4
Current Energy                          ....  -183.755657281 Eh
Current gradient norm                   ....     0.018513509 Eh/bohr
Maximum allowed component of the step   ....  0.300
Current trust radius                    ....  0.300
Updating the Hessian (BFGS)             .... done
Forming the augmented Hessian           .... done
Diagonalizing the augmented Hessian     .... done
Last element of RFO vector              ....  0.999957879
Lowest eigenvalues of augmented Hessian:
 -0.000133531  0.544038227  0.544038227  1.096581922
Length of the computed step             ....  0.009178657
The final length of the internal step   ....  0.009178657
Converting the step to Cartesian space:
 Initial RMS(Int)=    0.0045893287
Transforming coordinates:
 Iter   0:  RMS(Cart)=    0.0027794715 RMS(Int)=    0.0045893287
done
Storing new coordinates                 .... done
The predicted energy change is          ....    -0.000066771
Previously predicted energy change      ....    -0.003295756
Actually observed energy change         ....    -0.002927631
Ratio of predicted to observed change   ....     0.888303263
New trust radius                        ....     0.450000000

                                .--------------------.
          ----------------------|Geometry convergence|-------------------------
          Item                value                   Tolerance       Converged
          ---------------------------------------------------------------------
          Energy change      -0.0029276308            0.0000050000      NO
          RMS gradient        0.0072832797            0.0001000000      NO
          MAX gradient        0.0142836152            0.0003000000      NO
          RMS step            0.0045893287            0.0020000000      NO
          MAX step            0.0088978771            0.0040000000      NO
          ........................................................
          Max(Bonds)      0.0047      Max(Angles)    0.00
          Max(Dihed)        0.00      Max(Improp)    0.00
          ---------------------------------------------------------------------

The optimization has not yet converged - more geometry cycles are needed


    ---------------------------------------------------------------------------
                         Redundant Internal Coordinates
                            (Angstroem and degrees)

        Definition                    Value    dE/dq     Step     New-Value
    ----------------------------------------------------------------------------
     1. B(N   1,N   0)                1.0781 -0.014284  0.0047    1.0829   
     2. B(O   2,N   1)                1.1676 -0.002857  0.0012    1.1688   
     3. L(N   0,N   1,O   2, 2)       180.00  0.000000   -0.00    180.00   
     4. L(N   0,N   1,O   2, 1)       180.00  0.000000    0.00    180.00   
    ----------------------------------------------------------------------------

Geometry step timings:
Preparation and reading OPT file:      0.000 s ( 1.348 %)
Internal coordinates            :      0.000 s ( 0.492 %)
B/P matrices and projection     :      0.000 s ( 1.621 %)
Hessian update/contruction      :      0.000 s ( 2.386 %)
Making the step                 :      0.000 s ( 0.838 %)
Converting the step to Cartesian:      0.000 s ( 0.546 %)
Storing new data                :      0.000 s ( 0.455 %)
Checking convergence            :      0.000 s ( 0.328 %)
Final printing                  :      0.005 s (91.949 %)
Total time                      :      0.005 s

Time for energy+gradient        :      7.498 s
Time for complete geometry iter :      7.520 s

         *************************************************************
         *                GEOMETRY OPTIMIZATION CYCLE   3            *
         *************************************************************
---------------------------------
CARTESIAN COORDINATES (ANGSTROEM)
---------------------------------
  N      0.000000   -0.000000   -1.164058
  N     -0.000000    0.000000   -0.081200
  O      0.000000   -0.000000    1.087558

----------------------------
CARTESIAN COORDINATES (A.U.)
----------------------------
  NO LB      ZA    FRAG     MASS         X           Y           Z
   0 N     7.0000    0    14.007    0.000000   -0.000000   -2.199751
   1 N     7.0000    0    14.007   -0.000000    0.000000   -0.153445
   2 O     8.0000    0    15.999    0.000000   -0.000000    2.055186

--------------------------------
INTERNAL COORDINATES (ANGSTROEM)
--------------------------------
 N      0   0   0     0.000000000000     0.00000000     0.00000000
 N      1   0   0     1.082858475577     0.00000000     0.00000000
 O      2   1   0     1.168757340929   179.99999774     0.00000000

---------------------------
INTERNAL COORDINATES (A.U.)
---------------------------
 N      0   0   0     0.000000000000     0.00000000     0.00000000
 N      1   0   0     2.046305960637     0.00000000     0.00000000
 O      2   1   0     2.208631291366   179.99999774     0.00000000

------------------------------------------------------------------------------
                   ___                                                        
                  /   \      - P O W E R E D   B Y -                         
                 /     \                                                     
                 |  |  |   _    _      __       _____    __    __             
                 |  |  |  | |  | |    /  \     |  _  \  |  |  /  |          
                  \  \/   | |  | |   /    \    | | | |  |  | /  /          
                 / \  \   | |__| |  /  /\  \   | |_| |  |  |/  /          
                |  |  |   |  __  | /  /__\  \  |    /   |      \           
                |  |  |   | |  | | |   __   |  |    \   |  |\   \          
                \     /   | |  | | |  |  |  |  | |\  \  |  | \   \       
                 \___/    |_|  |_| |__|  |__|  |_| \__\ |__|  \__/        
                                                                              
                      - O R C A' S   B I G   F R I E N D -                    
                                      &                                       
                       - I N T E G R A L  F E E D E R -                       
                                                                              
 v1 FN, 2020, v2 2021, v3 2022-2024                                           
------------------------------------------------------------------------------


----------------------
SHARK INTEGRAL PACKAGE
----------------------

Number of atoms                             ...      3
Number of basis functions                   ...    108
Number of shells                            ...     48
Maximum angular momentum                    ...      3
Integral batch strategy                     ... SHARK/LIBINT Hybrid
RI-J (if used) integral strategy            ... SPLIT-RIJ (Revised 2003 algorithm where possible)
Printlevel                                  ...      1
Contraction scheme used                     ... PARTIAL GENERAL contraction
Prescreening option                         ... SCHWARTZ
   Thresh                                   ... 2.500e-11
   Tcut                                     ... 2.500e-12
   Tpresel                                  ... 2.500e-12 
Coulomb Range Separation                    ... NOT USED
Exchange Range Separation                   ... NOT USED
Multipole approximations                    ... NOT USED
Finite Nucleus Model                        ... NOT USED
CABS basis                                  ... NOT available
Auxiliary Coulomb fitting basis             ... NOT available
Auxiliary J/K fitting basis                 ... NOT available
Auxiliary Correlation fitting basis         ... NOT available
Auxiliary 'external' fitting basis          ... NOT available

Checking pre-screening integrals            ... done (  0.0 sec) Dimension = 48
Save PGC pre-screening integrals            ... done (  0.0 sec) Dimension = 48
Calculate PGC overlap integrals             ... done (  0.0 sec) Dimension = 30
Calculating pre-screening integrals (ORCA)  ... done (  0.1 sec) Dimension = 30
Check shell pair data                       ... done (  0.0 sec)
Shell pair information
Shell pair cut-off parameter TPreSel        ...   2.5e-12
Total number of shell pairs                 ...      1176
Shell pairs after pre-screening             ...      1025
Total number of primitive shell pairs       ...      1494
Primitive shell pairs kept                  ...      1279
          la=0 lb=0:    334 shell pairs
          la=1 lb=0:    259 shell pairs
          la=1 lb=1:     45 shell pairs
          la=2 lb=0:    171 shell pairs
          la=2 lb=1:     54 shell pairs
          la=2 lb=2:     21 shell pairs
          la=3 lb=0:     90 shell pairs
          la=3 lb=1:     27 shell pairs
          la=3 lb=2:     18 shell pairs
          la=3 lb=3:      6 shell pairs

Calculating one electron integrals          ... done (  0.0 sec)
Calculating Nuclear repulsion               ... done (  0.0 sec) ENN=     62.461838975318 Eh

Diagonalization of the overlap matrix:
Smallest eigenvalue                        ... 5.688e-04
Time for diagonalization                   ...    0.001 sec
Threshold for overlap eigenvalues          ... 1.000e-07
Number of eigenvalues below threshold      ... 0
Time for construction of square roots      ...    0.000 sec
Total time needed                          ...    0.001 sec

-------------------
DFT GRID GENERATION
-------------------

General Integration Accuracy     IntAcc      ... 4.388
Radial Grid Type                 RadialGrid  ... OptM3 with GC (2021)
Angular Grid (max. ang.)         AngularGrid ... 4 (Lebedev-302)
Angular grid pruning method      GridPruning ... 4 (adaptive)
Weight generation scheme         WeightScheme... mBecke (2022)
Basis function cutoff            BFCut       ... 1.0000e-11
Integration weight cutoff        WCut        ... 1.0000e-14
Partially contracted basis set               ... off
Rotationally invariant grid construction     ... off
Angular grids for H and He will be reduced by one unit

Total number of grid points                  ...    18345
Total number of batches                      ...      289
Average number of points per batch           ...       63
Average number of grid points per atom       ...     6115

---------------------
SHARK GRID GENERATION
---------------------

General Integration Accuracy     IntAcc      ... 4.388
Radial Grid Type                 RadialGrid  ... OptM3 with GC (2021)
Angular Grid (max. ang.)         AngularGrid ... 4 (Lebedev-302)
Angular grid pruning method      GridPruning ... 4 (adaptive)
Weight generation scheme         WeightScheme... mBecke (2022)
Basis function cutoff            BFCut       ... 1.0000e-11
Integration weight cutoff        WCut        ... 1.0000e-14
Partially contracted basis set               ... off
Rotationally invariant grid construction     ... off
Angular grids for H and He will be reduced by one unit
Steep s-basis detected: some atoms will have their radial
                        grid points doubled.

Total number of grid points                  ...    37001
Total number of batches                      ...      580
Average number of points per batch           ...       63
Average number of grid points per atom       ...    12334
Initializing property integral containers    ... done (  0.0 sec)

SHARK setup successfully completed in   0.5 seconds

Maximum memory used throughout the entire STARTUP-calculation: 18.5 MB
Occupation numbers will be reassigned to an Aufbau configuration
             **** ENERGY FILE WAS UPDATED (n2o_hf.en.tmp) ****
Finished Guess after   0.0 sec
Maximum memory used throughout the entire GUESS-calculation: 7.9 MB
----------------------------------------D-I-I-S--------------------------------------------
Iteration    Energy (Eh)           Delta-E    RMSDP     MaxDP     DIISErr   Damp  Time(sec)
-------------------------------------------------------------------------------------------
               ***  Starting incremental Fock matrix formation  ***
    1    -183.7556891090001727     0.00e+00  2.90e-05  5.12e-04  3.66e-03  0.700   0.5
                              *** Initializing SOSCF ***
---------------------------------------S-O-S-C-F--------------------------------------
Iteration    Energy (Eh)           Delta-E    RMSDP     MaxDP     MaxGrad    Time(sec)
--------------------------------------------------------------------------------------
    2    -183.7556966866872017    -7.58e-06  7.83e-05  1.24e-03  2.68e-03     0.4
               *** Restarting incremental Fock matrix formation ***
    3    -183.7557149373956236    -1.83e-05  2.64e-05  5.27e-04  3.51e-04     0.4
    4    -183.7557162274655411    -1.29e-06  1.38e-05  1.79e-04  1.40e-04     0.4
    5    -183.7557164978388755    -2.70e-07  3.52e-06  6.22e-05  3.44e-05     0.4
    6    -183.7557165222372078    -2.44e-08  9.72e-07  2.88e-05  1.95e-05     0.4
    7    -183.7557165256964709    -3.46e-09  3.99e-07  5.16e-06  7.03e-06     0.5
                 **** Energy Check signals convergence ****

               *****************************************************
               *                     SUCCESS                       *
               *           SCF CONVERGED AFTER   7 CYCLES          *
               *****************************************************

             **** ENERGY FILE WAS UPDATED (n2o_hf.en.tmp) ****

----------------
TOTAL SCF ENERGY
----------------

Total Energy       :       -183.75571652569647 Eh           -5000.24725 eV

Components:
Nuclear Repulsion  :         62.46183897531834 Eh            1699.67305 eV
Electronic Energy  :       -246.21755550101483 Eh           -6699.92030 eV
One Electron Energy:       -373.82946315026101 Eh          -10172.41685 eV
Two Electron Energy:        127.61190764924618 Eh            3472.49655 eV

Virial components:
Potential Energy   :       -367.46860577722475 Eh           -9999.32912 eV
Kinetic Energy     :        183.71288925152831 Eh            4999.08186 eV
Virial Ratio       :          2.00023312068273

---------------
SCF CONVERGENCE
---------------

  Last Energy change         ...    3.4593e-09  Tolerance :   1.0000e-08
  Last MAX-Density change    ...    5.1603e-06  Tolerance :   1.0000e-07
  Last RMS-Density change    ...    3.9924e-07  Tolerance :   5.0000e-09
  Last DIIS Error            ...    2.6807e-03  Tolerance :   5.0000e-07
  Last Orbital Gradient      ...    7.0326e-06  Tolerance :   1.0000e-05
  Last Orbital Rotation      ...    4.8172e-06  Tolerance :   1.0000e-05


Total SCF time: 0 days 0 hours 0 min 3 sec 
Finished LeanSCF after   3.0 sec

Maximum memory used throughout the entire LEANSCF-calculation: 12.3 MB

------------------------------------------------------------------------------
                         ORCA PROPERTY INTEGRAL CALCULATIONS
------------------------------------------------------------------------------

GBWName                                   ... n2o_hf.gbw
Number of atoms                           ...      3
Number of basis functions                 ...    108
Max core memory                           ...   1024 MB

Dipole integrals                          ... YES
Quadrupole integrals                      ...  NO
Linear momentum integrals                 ...  NO
Angular momentum integrals                ...  NO
Higher moments length integrals           ...  NO
Higher moments velocity integrals         ...  NO
Kinetic energy integrals                  ...  NO
GIAO right hand sides                     ...  NO
GIAO dipole derivative integrals          ...  NO
SOC integrals                             ...  NO
EPR diamagnetic integrals (GIAO)          ...  NO
EPR gauge integrals                       ...  NO
Field gradient integrals                  ...  NO (   0 nuclei)
Spin-dipole/Fermi contact integrals       ...  NO (   0 nuclei)
Contact density integrals                 ...  NO (   0 nuclei)
Nucleus-orbit integrals                   ...  NO (   0 nuclei)
[...]
GIAO right hand sides                     ...  NO
GIAO dipole derivative integrals          ...  NO
SOC integrals                             ...  NO
EPR diamagnetic integrals (GIAO)          ...  NO
EPR gauge integrals                       ...  NO
Field gradient integrals                  ...  NO (   0 nuclei)
Spin-dipole/Fermi contact integrals       ...  NO (   0 nuclei)
Contact density integrals                 ...  NO (   0 nuclei)
Nucleus-orbit integrals                   ...  NO (   0 nuclei)
Geometric perturbations                   ... YES (   3 nuclei)

Choice of electric origin   ... Center of mass
Position of electric origin ... (  0.0000, -0.0000, -0.0018) 
Choice of magnetic origin   ... GIAO
Position of magnetic origin ... (  0.0000,  0.0000,  0.0000) 

Calculating integrals                     ... Electric Dipole (Length)     done (  0.0 sec)
Calculating integrals                     ... Geometrical perturbation right hand sides

-----------------------
GEOMETRIC PERTURBATIONS (3 nuclei)
-----------------------

MaxCore                            ...   1024 MB
Number of batches                  ...      1

BATCH   0: Atoms    0 -    2 (  9 perturbations)
   => H(core) and overlap derivative integrals     ... done (     0.0 sec)
   => Making and storing internal U-coefficients   ... done (     0.0 sec)
   => Exact two electron derivative integrals      ... done (     4.2 sec)
   => Exact two-electron response operators        ... done (     5.4 sec)
   => Completing and storing right hand sides      ... done (     0.0 sec)
   => Total time for right hand sides =   5.4 sec

  geometrical perturbations done (  5.4 sec)

Property integrals calculated in   5.4 sec

Maximum memory used throughout the entire PROPINT-calculation: 27.6 MB

-------------------------   --------------------
FINAL SINGLE POINT ENERGY      -183.755717223647
-------------------------   --------------------

                                *** OPTIMIZATION RUN DONE ***

------------------------------------------------------------------------------
                            ORCA SCF RESPONSE CALCULATION
------------------------------------------------------------------------------

GBWName                                 ... n2o_hf.gbw
Number of atoms                         ...      3
Number of basis functions               ...    108
Max core memory                         ...   1024 MB

Electric field perturbation             ...  NO
Quadrupolar field perturbation          ...  NO
Magnetic field perturbation (no GIAO)   ...  NO
Magnetic field perturbation (with GIAO) ...  NO
Linear momentum (velocity) perturbation ...  NO
Spin-orbit coupling perturbation        ...  NO
Choice of electric origin               ... Center of mass
Position of electric origin             ...     0.000000    -0.000000    -0.001842
Choice of magnetic origin               ... GIAO
Position of magnetic origin             ...     0.000000     0.000000     0.000000
Nuclear geometric perturbations         ... YES (   9 perturbations)
Nucleus-orbit perturbations             ...  NO (   0 perturbations)
Spin-dipole/Fermi contact perturbations ...  NO (   0 perturbations)

Total number of real perturbations      ...      9
Total number of imaginary perturbations ...      0
Total number of triplet perturbations   ...      0
Total number of SOC perturbations       ...      0


                                **********************
                                * REAL PERTURBATIONS *
                                **********************



-------------------
SHARK CP-SCF DRIVER
-------------------

Dimension of the orbital basis          ...     90
Dimension of the CPSCF-problem          ...    869
Number of operators                     ...      1
Max. number of iterations               ...    128
Convergence Tolerance                   ... 1.0e-04
Number of perturbations                 ...      9
Perturbation type                       ... REAL

----------------------------
POPLE LINEAR EQUATION SOLVER
----------------------------

  ITERATION   0:   ||err||_max =   2.8737e-01 (   2.0 sec   0/  9 done)
  ITERATION   1:   ||err||_max =   7.5032e-02 (   2.0 sec   0/  9 done)
  ITERATION   2:   ||err||_max =   2.7288e-02 (   2.0 sec   0/  9 done)
  ITERATION   3:   ||err||_max =   9.5750e-03 (   2.0 sec   0/  9 done)
  ITERATION   4:   ||err||_max =   2.0382e-03 (   2.0 sec   2/  9 done)
  ITERATION   5:   ||err||_max =   4.1323e-04 (   1.8 sec   6/  9 done)
  ITERATION   6:   ||err||_max =   7.8331e-05 (   1.0 sec   9/  9 done)

CP-SCF equations solved in  12.7 sec
Response densities calculated in   0.0 sec

Maximum memory used throughout the entire SCFRESP-calculation: 14.1 MB

------------------------------------------------------------------------------
                              ORCA PROPERTY CALCULATIONS
------------------------------------------------------------------------------

GBWName                                 ... n2o_hf.gbw
Number of atoms                         ...      3
Number of basis functions               ...    108
Max core memory                         ...   1024 MB

Electric properties:
Dipole moment                           ... YES
Quadrupole moment                       ...  NO
Static polarizability (Dipole/Dipole)   ...  NO
Static polarizability (Dipole/Quad.)    ...  NO
Static polarizability (Quad./Quad.)     ...  NO
Static polarizability (Velocity)        ...  NO

Atomic electric properties:
Dipole moment                           ...  NO
Quadrupole moment                       ...  NO
Static polarizability                   ...  NO

Choice of electric origin               ... Center of mass
Position of electric origin             ...     0.000000    -0.000000    -0.001842

General magnetic properties:
Magnetizability                         ...  NO

EPR properties:
g-Tensor (aka g-matrix)                 ...  NO
Zero-Field splitting spin-orbit         ...  NO
Zero-field splitting spin-spin          ...  NO
Hyperfine couplings                     ...  NO (   0 nuclei)
Quadrupole couplings                    ...  NO (   0 nuclei)
Contact density                         ...  NO (   0 nuclei)

NMR properties:
Chemical shifts                         ...  NO (   0 nuclei)
Spin-rotation constants                 ...  NO (   0 nuclei)
Spin-spin couplings                     ...  NO (   0 nuclei,    0 pairs)

Choice of magnetic origin               ... GIAO
Position of magnetic origin             ...     0.000000     0.000000     0.000000

Properties with geometric perturbations:
SCF Hessian                             ... YES
IR spectrum                             ... YES
VCD spectrum                            ...  NO
X-ray spectroscopy properties:
SCF XES/XAS/RIXS spectra                ...  NO


-------------
DIPOLE MOMENT
-------------

Method             : SCF
Type of density    : Electron Density
Multiplicity       :   1
Irrep              :   0
Energy             :  -183.7557172236465135 Eh
Relativity type    : 
Basis              : AO
                                X                 Y                 Z
Electronic contribution:     -0.000000006       0.000000006      -0.267729605
Nuclear contribution   :      0.000000000      -0.000000000       0.009250273
                        -----------------------------------------
Total Dipole Moment    :     -0.000000006       0.000000006      -0.258479333
                        -----------------------------------------
Magnitude (a.u.)       :      0.258479333
Magnitude (Debye)      :      0.657002251



--------------------
Rotational spectrum 
--------------------
 
Rotational constants in cm-1:             0.000000             0.443881             0.443881 
Rotational constants in MHz :             0.000000         13307.221572         13307.221572 

Dipole components along the rotational axes: 
x,y,z [a.u.] :     0.258479     0.000000    -0.000000 
x,y,z [Debye]:     0.657002     0.000000    -0.000000 

 

Dipole moment calculation done in   0.0 sec 

-----------
SCF HESSIAN
-----------

Occupied/Occupied contributions to the Hessian:
   => Occupied/Occupied contributions              ... done (  0.0 sec)
Perturbed density contributions to the Hessian:
   => Perturbed density contributions              ... done (  0.0 sec)
Explicit contributions to the Hessian:
   => Nuclear repulsion Hessian                    ... done (  0.0 sec)
   => HCore and overlap Hessian                    ... done (  0.1 sec)
   => Exact two electron integral Hessian          ... done ( 19.8 sec)
   => Explicit contributions done
Dipole derivatives                                 ... done (  0.0 sec)
Mass weighting the Hessian           ... done
Calculating normal modes             ... done
Scaling frequencies                  ... done

-----------------------
VIBRATIONAL FREQUENCIES
-----------------------

Scaling factor for frequencies =  1.000000000  (already applied!)

     0:       0.00 cm**-1
     1:       0.00 cm**-1
     2:       0.00 cm**-1
     3:       0.00 cm**-1
     4:       0.00 cm**-1
     5:     717.24 cm**-1
     6:     717.24 cm**-1
     7:    1386.76 cm**-1
     8:    2607.96 cm**-1


------------
NORMAL MODES
------------

These modes are the Cartesian displacements weighted by the diagonal matrix
M(i,i)=1/sqrt(m[i]) where m[i] is the mass of the displaced atom
Thus, these vectors are normalized but *not* orthogonal

                  0          1          2          3          4          5    
      0       0.000000   0.000000   0.000000   0.000000   0.000000  -0.401142
      1       0.000000   0.000000   0.000000   0.000000   0.000000  -0.159340
      2       0.000000   0.000000   0.000000   0.000000   0.000000  -0.000000
      3       0.000000   0.000000   0.000000   0.000000   0.000000   0.772664
      4       0.000000   0.000000   0.000000   0.000000   0.000000   0.306915
      5       0.000000   0.000000   0.000000   0.000000   0.000000   0.000000
      6       0.000000   0.000000   0.000000   0.000000   0.000000  -0.325264
      7       0.000000   0.000000   0.000000   0.000000   0.000000  -0.129200
      8       0.000000   0.000000   0.000000   0.000000   0.000000   0.000000
                  6          7          8    
      0      -0.159340  -0.000000  -0.000000
      1       0.401142   0.000000   0.000000
      2      -0.000000   0.557160   0.629368
      3       0.306915   0.000000   0.000000
      4      -0.772664  -0.000000  -0.000000
      5       0.000000   0.318703  -0.767623
      6      -0.129200  -0.000000   0.000000
      7       0.325264   0.000000  -0.000000
      8       0.000000  -0.766812   0.121041


-----------
IR SPECTRUM
-----------

 Mode   freq       eps      Int      T**2         TX        TY        TZ
       cm**-1   L/(mol*cm) km/mol    a.u.
----------------------------------------------------------------------------
  5:    717.24   0.003148   15.91  0.001370  ( 0.034394  0.013662  0.000000)
  6:    717.24   0.003148   15.91  0.001370  ( 0.013662 -0.034394  0.000000)
  7:   1386.76   0.036202  182.95  0.008147  (-0.000000  0.000000  0.090259)
  8:   2607.96   0.107154  541.51  0.012822  (-0.000000  0.000000 -0.113234)

* The epsilon (eps) is given for a Dirac delta lineshape.
** The dipole moment derivative (T) already includes vibrational overlap.

The first frequency considered to be a vibration is 5
The total number of vibrations considered is 4


--------------------------
THERMOCHEMISTRY AT 298.15K
--------------------------

Temperature         ...   298.15 K
Pressure            ...     1.00 atm
Total Mass          ...    44.01 AMU
Quasi RRHO          ...     True
Cut-Off Frequency   ...     1.00 cm^-1
The molecule is recognized as being linear

Throughout the following assumptions are being made:
  (1) The electronic state is orbitally nondegenerate
  (2) There are no thermally accessible electronically excited states
  (3) Hindered rotations indicated by low frequency modes are not
      treated as such but are treated as vibrations and this may
      cause some error
  (4) All equations used are the standard statistical mechanics
      equations for an ideal gas
  (5) All vibrations are strictly harmonic

freq.     717.24  E(vib)   ...       0.07 
freq.     717.24  E(vib)   ...       0.07 
freq.    1386.76  E(vib)   ...       0.00 
freq.    2607.96  E(vib)   ...       0.00 

------------
INNER ENERGY
------------

The inner energy is: U= E(el) + E(ZPE) + E(vib) + E(rot) + E(trans)
    E(el)   - is the total energy from the electronic structure calculation
              = E(kin-el) + E(nuc-el) + E(el-el) + E(nuc-nuc)
    E(ZPE)  - the the zero temperature vibrational energy from the frequency calculation
    E(vib)  - the the finite temperature correction to E(ZPE) due to population
              of excited vibrational states
    E(rot)  - is the rotational thermal energy
    E(trans)- is the translational thermal energy

Summary of contributions to the inner energy U:
Electronic energy                ...   -183.75571722 Eh
Zero point energy                ...      0.01236862 Eh       7.76 kcal/mol
Thermal vibrational correction   ...      0.00021975 Eh       0.14 kcal/mol
Thermal rotational correction    ...      0.00094418 Eh       0.59 kcal/mol
Thermal translational correction ...      0.00141627 Eh       0.89 kcal/mol
-----------------------------------------------------------------------
Total thermal energy                   -183.74076840 Eh


Summary of corrections to the electronic energy:
(perhaps to be used in another calculation)
Total thermal correction                  0.00258020 Eh       1.62 kcal/mol
Non-thermal (ZPE) correction              0.01236862 Eh       7.76 kcal/mol
-----------------------------------------------------------------------
Total correction                          0.01494882 Eh       9.38 kcal/mol


--------
ENTHALPY
--------

The enthalpy is H = U + kB*T
                kB is Boltzmann's constant
Total thermal energy              ...   -183.74076840 Eh 
Thermal Enthalpy correction       ...      0.00094421 Eh       0.59 kcal/mol
-----------------------------------------------------------------------
Total Enthalpy                    ...   -183.73982419 Eh


Note: Rotational entropy computed according to Herzberg 
Infrared and Raman Spectra, Chapter V,1, Van Nostrand Reinhold, 1945 
Point Group:  C(inf)v, Symmetry Number:   1  
Rotational constants in cm-1:     0.000000     0.443881     0.443881 

Vibrational entropy computed according to the QRRHO of S. Grimme
Chem.Eur.J. 2012 18 9955 using a reference frequency of 100.0 cm-1


-------
ENTROPY
-------

The entropy contributions are T*S = T*(S(el)+S(vib)+S(rot)+S(trans))
     S(el)   - electronic entropy
     S(vib)  - vibrational entropy
     S(rot)  - rotational entropy
     S(trans)- translational entropy
The entropies will be listed as multiplied by the temperature to get
units of energy

Electronic entropy                ...      0.00000000 Eh      0.00 kcal/mol
Vibrational entropy               ...      0.00028137 Eh      0.18 kcal/mol
Rotational entropy                ...      0.00674713 Eh      4.23 kcal/mol
Translational entropy             ...      0.01770893 Eh     11.11 kcal/mol
-----------------------------------------------------------------------
Final entropy term                ...      0.02473743 Eh     15.52 kcal/mol


-------------------
GIBBS FREE ENERGY
-------------------

The Gibbs free energy is G = H - T*S

Total enthalpy                    ...   -183.73982419 Eh 
Total entropy correction          ...     -0.02473743 Eh    -15.52 kcal/mol
-----------------------------------------------------------------------
Final Gibbs free energy         ...   -183.76456162 Eh

For completeness - the Gibbs free energy minus the electronic energy
G-E(el)                           ...     -0.00884440 Eh     -5.55 kcal/mol


Maximum memory used throughout the entire PROP-calculation: 63.3 MB

--------------------------------
SUGGESTED CITATIONS FOR THIS RUN
--------------------------------

Below you find a list of papers that are relevant to this ORCA run
We neither can nor want to force you to cite these papers, but we appreciate if you do
You receive ORCA, which is the product of decades of hard work by many enthusiastic individuals, for free
The only thing we kindly ask in return is that you cite our papers,
We deeply appreciate it, if you show your appreciation for ORCA by not just citing the generic ORCA reference.

Please note that relegating all ORCA citations to the supporting information does *not* help us.
SI sections are not indexed - citations you put there will not count into any citation statistics
But we need these citations in order to attract the funding resources that allow us to do what we are doing

Therefore, if you are a happy ORCA user, please consider citing a few of the papers listed below in the main body of your paper

In addition to the list printed below, the program has created the file n2o_hf.bibtex that contains the list in bibtex format
You can import this file easily into all common literature databanks and citation aid programs


List of essential papers. We consider these as the minimum necessary citations

  1. Neese,F.
     Software update: the ORCA program system, version 5.0
     WIRES Comput. Molec. Sci., 2022 12(1)e1606
     doi.org/10.1002/wcms.1606

List of papers to cite with high priority. The work reported in these papers was absolutely
necessary for this run to complete.
Our perspective: the developers of density functionals and basis sets usually get cited in chemistry papers
Good! But without the algorithms to do something with them, the functionals or basis sets would not do anything.
Hence, in our opinion, the algorithm design and method developments papers are equally worthy of getting cited

  1. Bykov,D.; Petrenko,T.; Izsak,R.; Kossmann,S.; Becker,U.; Valeev,E.; Neese,F.
     Efficient implementation of the analytic second derivatives of Hartree-Fock and hybrid DFT energies: a detailed analysis of different approximations
     Molec. Phys., 2015 113 1961-1977
     doi.org/10.1080/00268976.2015.1025114
  2. Neese,F.
     The SHARK Integral Generation and Digestion System
     J. Comp. Chem., 2022  1-16
     doi.org/10.1002/jcc.26942

List of suggested additional citations. These are papers that are important in the 'surrounding' of 
of this run, or papers that preceded the highly important papers. If you like your results we are grateful for a citation.

  1. Neese,F.
     The ORCA program system
     WIRES Comput. Molec. Sci., 2012 2(1)73-78
     doi.org/10.1002/wcms.81
  2. Neese,F.
     Software update: the ORCA program system, version 4.0
     WIRES Comput. Molec. Sci., 2018 8(1)1-6
     doi.org/10.1002/wcms.1327
  3. Neese,F.; Wennmohs,F.; Becker,U.; Riplinger,C.
     The ORCA quantum chemistry program package
     J. Chem. Phys., 2020 152 Art. No. L224108
     doi.org/10.1063/5.0004608

List of optional additional citations

  1. Neese,F.
     Approximate second-order SCF convergence for spin unrestricted wavefunctions
     Chem. Phys. Lett., 2000 325(1-3)93-98
     doi.org/10.1016/s0009-2614(00)00662-x

Timings for individual modules:

Sum of individual times          ...       67.864 sec (=   1.131 min)
Startup calculation              ...        2.380 sec (=   0.040 min)   3.5 %
SCF iterations                   ...       15.924 sec (=   0.265 min)  23.5 %
Property integrals               ...        5.640 sec (=   0.094 min)   8.3 %
SCF Response                     ...       12.757 sec (=   0.213 min)  18.8 %
Property calculations            ...       20.043 sec (=   0.334 min)  29.5 %
SCF Gradient evaluation          ...       11.106 sec (=   0.185 min)  16.4 %
Geometry relaxation              ...        0.014 sec (=   0.000 min)   0.0 %
                             ****ORCA TERMINATED NORMALLY****
TOTAL RUN TIME: 0 days 0 hours 1 minutes 7 seconds 995 msec
