
                                 *****************
                                 * O   R   C   A *
                                 *****************

                                            #,                                       
                                            ###                                      
                                            ####                                     
                                            #####                                    
                                            ######                                   
                                           ########,                                 
                                     ,,################,,,,,                         
                               ,,#################################,,                 
                          ,,##########################################,,             
                       ,#########################################, ''#####,          
                    ,#############################################,,   '####,        
                  ,##################################################,,,,####,       
                ,###########''''           ''''###############################       
              ,#####''   ,,,,##########,,,,          '''####'''          '####       
            ,##' ,,,,###########################,,,                        '##       
           ' ,,###''''                  '''############,,,                           
         ,,##''                                '''############,,,,        ,,,,,,###''
      ,#''                                            '''#######################'''  
     '                                                          ''''####''''         
             ,#######,   #######,   ,#######,      ##                                
            ,#'     '#,  ##    ##  ,#'     '#,    #''#        ,####,   ,####,        
            ##       ##  ##   ,#'  ##            #'  '#       #'       #'  '#        
            ##       ##  #######   ##           ,######,      #####,   #    #        
            '#,     ,#'  ##    ##  '#,     ,#' ,#      #,     #,   #   #,  ,#        
             '#######'   ##     ##  '#######'  #'      '#     '####' # '####'        



                #########################################################
                #                        -***-                          #
                #          Department of theory and spectroscopy        #
                #                                                       #
                #                      Frank Neese                      #
                #                                                       #
                #     Directorship, Architecture, Infrastructure        #
                #                    SHARK, DRIVERS                     #
                #        Core code/Algorithms in most modules           #
                #                                                       #
                #        Max Planck Institute fuer Kohlenforschung      #
                #                Kaiser Wilhelm Platz 1                 #
                #                 D-45470 Muelheim/Ruhr                 #
                #                      Germany                          #
                #                                                       #
                #                  All rights reserved                  #
                #                        -***-                          #
                #########################################################


                         Program Version 6.0.1  -  RELEASE   -


 With contributions from (in alphabetic order):
[Max-Planck-Institut fuer Kohlenforschung]                               
  Daniel Aravena         : Magnetic Suceptibility                        
  Michael Atanasov       : Ab Initio Ligand Field Theory (pilot matlab implementation)
  Alexander A. Auer      : GIAO ZORA, VPT2 properties, NMR spectrum      
  Ute Becker             : All parallelization in ORCA, NUMFREQ, NUMCALC 
  Giovanni Bistoni       : ED, misc. LED, open-shell LED, HFLD           
  Martin Brehm           : Molecular dynamics                            
  Dmytro Bykov           : pre 5.0 version of the SCF Hessian            
  Marcos Casanova-Páez   : Triplet and SCS-CIS(D). UHF-(DLPNO)-IP/EA/STEOM-CCSD. UHF-CVS-IP/STEOM-CCSD   
  Vijay G. Chilkuri      : MRCI spin determinant printing, contributions to CSF-ICE 
  Pauline Colinet        : FMM embedding                                 
  Dipayan Datta          : RHF DLPNO-CCSD density                        
  Achintya Kumar Dutta   : EOM-CC, STEOM-CC                              
  Nicolas Foglia         : Exact transition moments, OPA infrastructure, MCD improvements    
  Dmitry Ganyushin       : Spin-Orbit,Spin-Spin,Magnetic field MRCI      
  Miquel Garcia-Rates    : C-PCM and meta-GGA Hessian, CCSD/C-PCM, Gaussian charge scheme 
  Tiago L. C. Gouveia    : GS-ROHF, GS-ROCIS                             
  Yang Guo               : DLPNO-NEVPT2, F12-NEVPT2, CIM, IAO-localization        
  Andreas Hansen         : Spin unrestricted coupled pair/coupled cluster methods 
  Ingolf Harden          : AUTO-CI MPn and infrastructure                
  Benjamin Helmich-Paris : MC-RPA, TRAH-(SCF,CASSCF), AVAS, COSX integrals, SCF dyn. polar. 
  Lee Huntington         : MR-EOM, pCC                                   
  Robert Izsak           : Overlap fitted RIJCOSX, COSX-SCS-MP3, EOM     
  Riya Kayal             : Wick's Theorem for AUTO-CI, AUTO-CI UHF-CCSDT 
  Emily Kempfer          : AUTO-CI, RHF CISDT and CCSDT                  
  Christian Kollmar      : KDIIS, OOCD, Brueckner-CCSD(T), CCSD density, CASPT2, CASPT2-K, improved NEVPT2 
  Axel Koslowski         : Symmetry handling                             
  Simone Kossmann        : meta-GGA functionals, TD-DFT gradient, OOMP2, (MP2 Hessian; deprecated post 5.0) 
  Lucas Lang             : DCDCAS                                        
  Marvin Lechner         : AUTO-CI (C++ implementation), FIC-MRCC        
  Spencer Leger          : CASSCF response                               
  Dagmar Lenk            : GEPOL surface, SMD, ORCA-2-JSON               
  Dimitrios Liakos       : Extrapolation schemes; Compound Job, initial MDCI parallelization 
  Dimitrios Manganas     : Further ROCIS development; embedding schemes. LFT, Crystal Embedding 
  Dimitrios Pantazis     : SARC Basis sets                               
  Anastasios Papadopoulos: AUTO-CI, single reference methods and gradients 
  Taras Petrenko         : pre 6.0 DFT Hessian and TD-DFT gradient, (ASA, deprecated), ECA, 1-Electron XAS/XES, NRVS 
  Peter Pinski           : DLPNO-MP2, DLPNO-MP2 Gradient                 
  Christoph Reimann      : Effective Core Potentials                     
  Marius Retegan         : Local ZFS, SOC                                
  Christoph Riplinger    : Optimizer, TS searches, QM/MM, DLPNO-CCSD(T), (RO)-DLPNO pert. Triples 
  Michael Roemelt        : Original ROCIS implementation                 
  Masaaki Saitow         : Open-shell DLPNO-CCSD energy and density      
  Barbara Sandhoefer     : DKH picture change effects                    
  Kantharuban Sivalingam : CASSCF convergence/infrastructure, NEVPT2 and variants, FIC-MRCI 
  Bernardo de Souza      : ESD, SOC TD-DFT                               
  Georgi L. Stoychev     : AutoAux, RI-MP2 NMR, DLPNO-MP2 response, X2C  
  Van Anh Tran           : RI-MP2 g-tensors                              
  Willem Van den Heuvel  : Paramagnetic NMR                              
  Zikuan Wang            : NOTCH, Electric field optimization            
  Frank Wennmohs         : Technical directorship and infrastructure     
  Hang Xu                : AUTO-CI-Response properties                   
                                                                         
[FACCTs GmbH]                                                            
  Markus Bursch, Miquel Garcia-Rates, Christoph Riplinger, Bernardo de Souza, Georgi L. Stoychev 
                                                                 
  APM, Basis sets (HGBS, AHGBS, def-TZVP (Ac-Lr), def2-XVPD (La-Lu)), CI-OPT, improved COSX, DLPNO-Multilevel,           
  DOCKER, DRACO, updates on ESD, GOAT, IRC, LR-CPCM, MBIS, meta-GGA TD-DFT gradient, ML-optimized integration grids, 
  MM, NACMEs, nearIR, NEB, NEB-TS, NL-DFT gradient (VV10), 2- and 3-layer-ONIOM, interface openCOSMO-RS, QMMM,   
  Crystal-QMMM, SF, symmetry and pop. for TD-DFT, r2SCAN hybrids, SOLVATOR                                   
                                                                         
[Other institutions]                                                     
  V. Asgeirsson          : NEB                                           
  Christoph Bannwarth    : sTDA-DFT, sTD-DFT, PBEh-3c, B97-3c, D3        
  Sebastian Ehlert       : rSCAN, r2SCAN, r2SCAN-3c, D4, dhf basis sets  
  Marvin Friede          : D4 for Fr, Ra, Ac-Lr                          
  Lars Goerigk           : TD-DFT with DH, B97 family of functionals     
  Stefan Grimme          : VdW corrections, initial TS optimization, DFT functionals, gCP, sTDA/sTD-DF 
  Waldemar Hujo          : DFT-NL                                        
  H. Jonsson             : NEB                                           
  Holger Kruse           : gCP                                           
  Marcel Mueller         : wB97X-3c, vDZP basis set                      
  Hagen Neugebauer       : wr2SCAN                                       
  Tobias Risthaus        : range-separated hybrid DFT                    
  Lukas Wittmann         : regularized MP2, r2SCAN double-hybrids, wr2SCAN        
                                                                         
We gratefully acknowledge several colleagues who have allowed us to      
interface, adapt or use parts of their codes:                            
  Ed Valeev, F. Pavosevic, A. Kumar             : LibInt (2-el integral package), F12 methods 
  Garnet Chan, S. Sharma, J. Yang, R. Olivares  : DMRG                   
  Ulf Ekstrom                                   : XCFun DFT Library      
  Mihaly Kallay                                 : mrcc  (arbitrary order and MRCC methods)
  Frank Weinhold                                : gennbo (NPA and NBO analysis)           
  Simon Mueller                                 : openCOSMO-RS                            
  Christopher J. Cramer and Donald G. Truhlar   : smd solvation model                     
  S Lehtola, MJT Oliveira, MAL Marques          : LibXC Library                           
  Liviu Ungur et al                             : ANISO software                          


 Your calculation uses the libint2 library for the computation of 2-el integrals
 For citations please refer to: http://libint.valeyev.net

 Your ORCA version has been built with support for libXC version: 6.2.2
 For citations please refer to: https://libxc.gitlab.io

 This ORCA versions uses:
   CBLAS   interface :  Fast vector & matrix operations
   LAPACKE interface :  Fast linear algebra routines
   SCALAPACK package :  Parallel linear algebra routines
   Shared memory     :  Shared parallel matrices
   BLAS/LAPACK       :  OpenBLAS 0.3.27  USE64BITINT DYNAMIC_ARCH NO_AFFINITY Haswell SINGLE_THREADED
        Core in use  :  Haswell
   Copyright (c) 2011-2014, The OpenBLAS Project


Warning: RI is on but no J-basis has been assigned. Assigning Def2/J (nothing to worry about!)
================================================================================

----- Orbital basis set information -----
Your calculation utilizes the basis: def2-TZVP
   F. Weigend and R. Ahlrichs, Phys. Chem. Chem. Phys. 7, 3297 (2005).

----- AuxJ basis set information -----
Your calculation utilizes the auxiliary basis: def2/J
   F. Weigend, Phys. Chem. Chem. Phys. 8, 1057 (2006).

================================================================================
                                        WARNINGS
                       Please study these warnings very carefully!
================================================================================


WARNING: Geometry Optimization
  ===> : Switching off AutoStart
         For restart on a previous wavefunction, please use MOREAD

================================================================================
                                       INPUT FILE
================================================================================
NAME = n2o_b3lyp_def2_TZVP.inp
|  1> !B3LYP def2-TZVP opt NumFreq
|  2> * XYZ 0 1
|  3> N 0.000000 0.000000 -1.187431
|  4> N 0.000000 0.000000 -0.074171
|  5> O 0.000000 0.000000 1.103902
|  6> *
|  7> 
|  8>                          ****END OF INPUT****
================================================================================

                       *****************************
                       * Geometry Optimization Run *
                       *****************************

Geometry optimization settings:
Update method            Update   .... BFGS
Choice of coordinates    CoordSys .... (2022) Redundant Internals
Initial Hessian          InHess   .... Almloef's Model
Max. no of cycles        MaxIter  .... 50

Convergence Tolerances:
Energy Change            TolE     ....  5.0000e-06 Eh
Max. Gradient            TolMAXG  ....  3.0000e-04 Eh/bohr
RMS Gradient             TolRMSG  ....  1.0000e-04 Eh/bohr
Max. Displacement        TolMAXD  ....  4.0000e-03 bohr
RMS Displacement         TolRMSD  ....  2.0000e-03 bohr
Strict Convergence                .... False

------------------------------------------------------------------------------
                        ORCA OPTIMIZATION COORDINATE SETUP
------------------------------------------------------------------------------

The optimization will be done in redundant internal coordinates (2022)
Making redundant internal coordinates   ...  (2022 redundants) done
Evaluating the initial hessian          ...  (Almloef) done
Evaluating the coordinates              ...  done
Calculating the B-matrix                .... done
Calculating the G-matrix                .... done
Diagonalizing the G-matrix              .... done
The first mode is                       ....    0
The number of degrees of freedom        ....    4

    -----------------------------------------------------------------
                    Redundant Internal Coordinates


    -----------------------------------------------------------------
         Definition                    Initial Value    Approx d2E/dq
    -----------------------------------------------------------------
      1. B(N   1,N   0)                  1.1133         1.385267   
      2. B(O   2,N   1)                  1.1781         1.091763   
      3. L(N   0,N   1,O   2, 2)       180.0000         0.544038   
      4. L(N   0,N   1,O   2, 1)       180.0000         0.544038   
    -----------------------------------------------------------------

Number of atoms                         .... 3
Number of degrees of freedom            .... 4


         *************************************************************
         *                GEOMETRY OPTIMIZATION CYCLE   1            *
         *************************************************************
---------------------------------
CARTESIAN COORDINATES (ANGSTROEM)
---------------------------------
  N      0.000000    0.000000   -1.187431
  N      0.000000    0.000000   -0.074171
  O      0.000000    0.000000    1.103902

----------------------------
CARTESIAN COORDINATES (A.U.)
----------------------------
  NO LB      ZA    FRAG     MASS         X           Y           Z
   0 N     7.0000    0    14.007    0.000000    0.000000   -2.243919
   1 N     7.0000    0    14.007    0.000000    0.000000   -0.140163
   2 O     8.0000    0    15.999    0.000000    0.000000    2.086072

--------------------------------
INTERNAL COORDINATES (ANGSTROEM)
--------------------------------
 N      0   0   0     0.000000000000     0.00000000     0.00000000
 N      1   0   0     1.113260000000     0.00000000     0.00000000
 O      2   1   0     1.178073000000   179.99999879     0.00000000

---------------------------
INTERNAL COORDINATES (A.U.)
---------------------------
 N      0   0   0     0.000000000000     0.00000000     0.00000000
 N      1   0   0     2.103756515849     0.00000000     0.00000000
 O      2   1   0     2.226235335767   179.99999879     0.00000000

---------------------
BASIS SET INFORMATION
---------------------
There are 2 groups of distinct atoms

 Group   1 Type N   : 11s6p2d1f contracted to 5s3p2d1f pattern {62111/411/11/1}
 Group   2 Type O   : 11s6p2d1f contracted to 5s3p2d1f pattern {62111/411/11/1}

Atom   0N    basis set group =>   1
Atom   1N    basis set group =>   1
Atom   2O    basis set group =>   2
---------------------------------
AUXILIARY/J BASIS SET INFORMATION
---------------------------------
There are 2 groups of distinct atoms

 Group   1 Type N   : 12s5p4d2f1g contracted to 6s4p3d1f1g pattern {711111/2111/211/2/1}
 Group   2 Type O   : 12s5p4d2f1g contracted to 6s4p3d1f1g pattern {711111/2111/211/2/1}

Atom   0N    basis set group =>   1
Atom   1N    basis set group =>   1
Atom   2O    basis set group =>   2
------------------------------------------------------------------------------
                             ORCA STARTUP CALCULATIONS
                           -- RI-GTO INTEGRALS CHOSEN --
------------------------------------------------------------------------------
------------------------------------------------------------------------------
                   ___                                                        
                  /   \      - P O W E R E D   B Y -                         
                 /     \                                                     
                 |  |  |   _    _      __       _____    __    __             
                 |  |  |  | |  | |    /  \     |  _  \  |  |  /  |          
                  \  \/   | |  | |   /    \    | | | |  |  | /  /          
                 / \  \   | |__| |  /  /\  \   | |_| |  |  |/  /          
                |  |  |   |  __  | /  /__\  \  |    /   |      \           
                |  |  |   | |  | | |   __   |  |    \   |  |\   \          
                \     /   | |  | | |  |  |  |  | |\  \  |  | \   \       
                 \___/    |_|  |_| |__|  |__|  |_| \__\ |__|  \__/        
                                                                              
                      - O R C A' S   B I G   F R I E N D -                    
                                      &                                       
                       - I N T E G R A L  F E E D E R -                       
                                                                              
 v1 FN, 2020, v2 2021, v3 2022-2024                                           
------------------------------------------------------------------------------


----------------------
SHARK INTEGRAL PACKAGE
----------------------

Number of atoms                             ...      3
Number of basis functions                   ...     93
Number of shells                            ...     33
Maximum angular momentum                    ...      3
Integral batch strategy                     ... SHARK/LIBINT Hybrid
RI-J (if used) integral strategy            ... SPLIT-RIJ (Revised 2003 algorithm where possible)
Printlevel                                  ...      1
Contraction scheme used                     ... SEGMENTED contraction
Prescreening option                         ... SCHWARTZ
   Thresh                                   ... 2.500e-11
   Tcut                                     ... 2.500e-12
   Tpresel                                  ... 2.500e-12 
Coulomb Range Separation                    ... NOT USED
Exchange Range Separation                   ... NOT USED
Multipole approximations                    ... NOT USED
Finite Nucleus Model                        ... NOT USED
CABS basis                                  ... NOT available
Auxiliary Coulomb fitting basis             ... AVAILABLE
   # of basis functions in Aux-J            ...    147
   # of shells in Aux-J                     ...     45
   Maximum angular momentum in Aux-J        ...      4
Auxiliary J/K fitting basis                 ... NOT available
Auxiliary Correlation fitting basis         ... NOT available
Auxiliary 'external' fitting basis          ... NOT available

Checking pre-screening integrals            ... done (  0.0 sec) Dimension = 33
Check shell pair data                       ... done (  0.0 sec)
Shell pair information
Shell pair cut-off parameter TPreSel        ...   2.5e-12
Total number of shell pairs                 ...       561
Shell pairs after pre-screening             ...       554
Total number of primitive shell pairs       ...      1896
Primitive shell pairs kept                  ...      1612
          la=0 lb=0:    114 shell pairs
          la=1 lb=0:    135 shell pairs
          la=1 lb=1:     45 shell pairs
          la=2 lb=0:     89 shell pairs
          la=2 lb=1:     54 shell pairs
          la=2 lb=2:     21 shell pairs
          la=3 lb=0:     45 shell pairs
          la=3 lb=1:     27 shell pairs
          la=3 lb=2:     18 shell pairs
          la=3 lb=3:      6 shell pairs

Calculating one electron integrals          ... done (  0.0 sec)
Calculating RI/J V-Matrix + Cholesky decomp.... done (  0.0 sec)
Calculating Nuclear repulsion               ... done (  0.0 sec) ENN=     61.379291869189 Eh

Diagonalization of the overlap matrix:
Smallest eigenvalue                        ... 1.180e-04
Time for diagonalization                   ...    0.001 sec
Threshold for overlap eigenvalues          ... 1.000e-07
Number of eigenvalues below threshold      ... 0
Time for construction of square roots      ...    0.000 sec
Total time needed                          ...    0.001 sec

-------------------
DFT GRID GENERATION
-------------------

General Integration Accuracy     IntAcc      ... 4.388
Radial Grid Type                 RadialGrid  ... OptM3 with GC (2021)
Angular Grid (max. ang.)         AngularGrid ... 4 (Lebedev-302)
Angular grid pruning method      GridPruning ... 4 (adaptive)
Weight generation scheme         WeightScheme... mBecke (2022)
Basis function cutoff            BFCut       ... 1.0000e-11
Integration weight cutoff        WCut        ... 1.0000e-14
Partially contracted basis set               ... off
Rotationally invariant grid construction     ... off
Angular grids for H and He will be reduced by one unit

Total number of grid points                  ...    18349
Total number of batches                      ...      288
Average number of points per batch           ...       63
Average number of grid points per atom       ...     6116

--------------------
COSX GRID GENERATION
--------------------

GRIDX 1
-------
General Integration Accuracy     IntAcc      ... 3.816
Radial Grid Type                 RadialGrid  ... OptM3 with GC (2021)
Angular Grid (max. ang.)         AngularGrid ... 1 (Lebedev-50)
Angular grid pruning method      GridPruning ... 4 (adaptive)
Weight generation scheme         WeightScheme... mBecke (2022)
Basis function cutoff            BFCut       ... 1.0000e-11
Integration weight cutoff        WCut        ... 1.0000e-14
Partially contracted basis set               ... on
Rotationally invariant grid construction     ... off
Angular grids for H and He will be reduced by one unit

Total number of grid points                  ...     2293
Total number of batches                      ...       20
Average number of points per batch           ...      114
Average number of grid points per atom       ...      764
UseSFitting                                  ... on

GRIDX 2
-------
General Integration Accuracy     IntAcc      ... 4.020
Radial Grid Type                 RadialGrid  ... OptM3 with GC (2021)
Angular Grid (max. ang.)         AngularGrid ... 2 (Lebedev-110)
Angular grid pruning method      GridPruning ... 4 (adaptive)
Weight generation scheme         WeightScheme... mBecke (2022)
Basis function cutoff            BFCut       ... 1.0000e-11
Integration weight cutoff        WCut        ... 1.0000e-14
Partially contracted basis set               ... on
Rotationally invariant grid construction     ... off
Angular grids for H and He will be reduced by one unit

Total number of grid points                  ...     5631
Total number of batches                      ...       45
Average number of points per batch           ...      125
Average number of grid points per atom       ...     1877
UseSFitting                                  ... on

GRIDX 3
-------
General Integration Accuracy     IntAcc      ... 4.338
Radial Grid Type                 RadialGrid  ... OptM3 with GC (2021)
Angular Grid (max. ang.)         AngularGrid ... 3 (Lebedev-194)
Angular grid pruning method      GridPruning ... 4 (adaptive)
Weight generation scheme         WeightScheme... mBecke (2022)
Basis function cutoff            BFCut       ... 1.0000e-11
Integration weight cutoff        WCut        ... 1.0000e-14
Partially contracted basis set               ... on
Rotationally invariant grid construction     ... off
Angular grids for H and He will be reduced by one unit

Total number of grid points                  ...    12566
Total number of batches                      ...      100
Average number of points per batch           ...      125
Average number of grid points per atom       ...     4189
UseSFitting                                  ... on
Initializing property integral containers    ... done (  0.0 sec)

SHARK setup successfully completed in   0.2 seconds

Maximum memory used throughout the entire STARTUP-calculation: 13.7 MB
-------------------------------------------------------------------------------
                                 ORCA GUESS
                   Start orbitals & Density for SCF / CASSCF
-------------------------------------------------------------------------------

------------
SCF SETTINGS
------------
Hamiltonian:
 Density Functional     Method          .... DFT(GTOs)
 Exchange Functional    Exchange        .... B88
   X-Alpha parameter    XAlpha          ....  0.666667
   Becke's b parameter  XBeta           ....  0.004200
 Correlation Functional Correlation     .... LYP
 LDA part of GGA corr.  LDAOpt          .... VWN-5
 Gradients option       PostSCFGGA      .... off
 Hybrid DFT is turned on
   Fraction HF Exchange ScalHFX         ....  0.200000
   Scaling of DF-GGA-X  ScalDFX         ....  0.720000
   Scaling of DF-GGA-C  ScalDFC         ....  0.810000
   Scaling of DF-LDA-C  ScalLDAC        ....  1.000000
   Perturbative correction              ....  0.000000
   NL short-range parameter             ....  4.800000
 RI-approximation to the Coulomb term is turned on
   Number of AuxJ basis functions       .... 147
   RIJ-COSX (HFX calculated with COS-X)).... on


General Settings:
 Integral files         IntName         .... n2o_b3lyp_def2_TZVP
 Hartree-Fock type      HFTyp           .... RHF
 Total Charge           Charge          ....    0
 Multiplicity           Mult            ....    1
 Number of Electrons    NEL             ....   22
 Basis Dimension        Dim             ....   93
 Nuclear Repulsion      ENuc            ....     61.3792918692 Eh

Convergence Acceleration:
 AO-DIIS                CNVDIIS         .... on
   Start iteration      DIISMaxIt       ....    12
   Startup error        DIISStart       ....  0.200000
   # of expansion vecs  DIISMaxEq       ....     5
   Bias factor          DIISBfac        ....   1.050
   Max. coefficient     DIISMaxC        ....  10.000
 MO-DIIS                CNVKDIIS        .... off
 Trust-Rad. Augm. Hess. CNVTRAH         .... auto
   Auto Start mean grad. ratio tolernc. ....  1.125000
   Auto Start start iteration           ....    50
   Auto Start num. interpolation iter.  ....    10
   Max. Number of Micro iterations      ....    24
   Max. Number of Macro iterations      .... Maxiter - #DIIS iter
   Number of Davidson start vectors     ....     2
   Converg. threshold    (grad. norm)   ....   1.000e-05
   Grad. Scal. Fac. for Micro threshold ....   0.100
   Minimum threshold for Micro iter.    ....   1.000e-02
   NR start threshold (gradient norm)   ....   1.000e-04
   Initial trust radius                 ....   0.400
   Minimum AH scaling param. (alpha)    ....   1.000
   Maximum AH scaling param. (alpha)    .... 1000.000
   Quad. conv. algorithm                .... NR
   White noise on init. David. guess    .... on
   Maximum white noise                  ....   0.010
   Pseudo random numbers                .... off
   Inactive MOs                         .... canonical
   Orbital update algorithm             .... Taylor
   Preconditioner                       .... Diag
   Full preconditioner red. dimension   ....   250
 SOSCF                  CNVSOSCF        .... on
   Start iteration      SOSCFMaxIt      ....   150
   Startup grad/error   SOSCFStart      ....  0.003300
   Hessian update       SOSCFHessUp     .... L-BFGS
 Level Shifting         CNVShift        .... on
   Level shift para.    LevelShift      ....    0.2500
   Turn off err/grad.   ShiftErr        ....    0.0010
 Zerner damping         CNVZerner       .... off
 Static damping         CNVDamp         .... on
   Fraction old density DampFac         ....    0.7000
   Max. Damping (<1)    DampMax         ....    0.9800
   Min. Damping (>=0)   DampMin         ....    0.0000
   Turn off err/grad.   DampErr         ....    0.1000

SCF Procedure:
 Maximum # iterations   MaxIter         ....   125
 SCF integral mode      SCFMode         .... Direct
   Integral package                     .... SHARK and LIBINT hybrid scheme
 Reset frequency        DirectResetFreq ....    20
 Integral Threshold     Thresh          ....  2.500e-11 Eh
 Primitive CutOff       TCut            ....  2.500e-12 Eh

Convergence Tolerance:
 Convergence Check Mode ConvCheckMode   .... Total+1el-Energy
 Convergence forced     ConvForced      .... 0
 Energy Change          TolE            ....  1.000e-08 Eh
 1-El. energy change                    ....  1.000e-05 Eh
 Orbital Gradient       TolG            ....  1.000e-05
 Orbital Rotation angle TolX            ....  1.000e-05
 DIIS Error             TolErr          ....  5.000e-07

------------------------------
INITIAL GUESS: MODEL POTENTIAL
------------------------------
Loading Hartree-Fock densities                     ... done
Calculating cut-offs                               ... done
Initializing the effective Hamiltonian             ... done
Setting up the integral package (SHARK)            ... done
Starting the Coulomb interaction                   ... done (   0.0 sec)
Making the grid                                    ... done (   0.0 sec)
Mapping shells                                     ... done
Starting the XC term evaluation                    ... done (   0.0 sec)
  promolecular density results
     # of electrons  =     22.000047330
     EX              =    -21.311625618
     EC              =     -0.786792927
     EX+EC           =    -22.098418545
Transforming the Hamiltonian                       ... done (   0.0 sec)
Diagonalizing the Hamiltonian                      ... done (   0.0 sec)
Back transforming the eigenvectors                 ... done (   0.0 sec)
Now organizing SCF variables                       ... done
                      ------------------
                      INITIAL GUESS DONE (   0.1 sec)
                      ------------------
             **** ENERGY FILE WAS UPDATED (n2o_b3lyp_def2_TZVP.en.tmp) ****
Finished Guess after   0.1 sec
Maximum memory used throughout the entire GUESS-calculation: 8.9 MB

-------------------------------------------------------------------------------------------
                                      ORCA LEAN-SCF
                              memory conserving SCF solver
-------------------------------------------------------------------------------------------

----------------------------------------D-I-I-S--------------------------------------------
Iteration    Energy (Eh)           Delta-E    RMSDP     MaxDP     DIISErr   Damp  Time(sec)
-------------------------------------------------------------------------------------------
               ***  Starting incremental Fock matrix formation  ***
    1    -184.5906033198633622     0.00e+00  2.41e-03  5.57e-02  1.87e-01  0.700   0.5
    2    -184.6256289352799058    -3.50e-02  1.58e-03  4.17e-02  7.16e-02  0.700   0.3
                               ***Turning on AO-DIIS***
    3    -184.6363485027601428    -1.07e-02  6.56e-04  1.53e-02  2.84e-02  0.700   0.3
    4    -184.6438534925252952    -7.50e-03  8.68e-04  1.61e-02  1.95e-02  0.000   0.3
    5    -184.6610602272843948    -1.72e-02  2.82e-04  8.07e-03  5.30e-03  0.000   0.3
    6    -184.6610856320059497    -2.54e-05  1.06e-04  1.57e-03  3.94e-03  0.000   0.3
                              *** Initializing SOSCF ***
---------------------------------------S-O-S-C-F--------------------------------------
Iteration    Energy (Eh)           Delta-E    RMSDP     MaxDP     MaxGrad    Time(sec)
--------------------------------------------------------------------------------------
    7    -184.6611206159411722    -3.50e-05  2.95e-05  4.12e-04  5.59e-04     0.3
               *** Restarting incremental Fock matrix formation ***
    8    -184.6611284743637498    -7.86e-06  1.33e-05  3.22e-04  1.38e-04     0.5
    9    -184.6611282064607167     2.68e-07  8.41e-06  1.56e-04  2.51e-04     0.4
   10    -184.6611285662432920    -3.60e-07  7.61e-06  1.39e-04  6.33e-05     0.4
   11    -184.6611284632508045     1.03e-07  5.15e-06  9.47e-05  1.17e-04     0.4
   12    -184.6611285893285981    -1.26e-07  7.98e-07  1.65e-05  4.66e-06     0.4
   13    -184.6611285883900564     9.39e-10  3.65e-07  7.44e-06  4.38e-06     0.4
                 **** Energy Check signals convergence ****

               *****************************************************
               *                     SUCCESS                       *
               *           SCF CONVERGED AFTER  13 CYCLES          *
               *****************************************************

Recomputing exchange energy using gridx3       ... done (    0.737 sec)
Old exchange energy                            :     -4.261056737 Eh
New exchange energy                            :     -4.261058318 Eh
Exchange energy change after final integration :     -0.000001581 Eh
Total energy after final integration           :   -184.661130170 Eh
             **** ENERGY FILE WAS UPDATED (n2o_b3lyp_def2_TZVP.en.tmp) ****

----------------
TOTAL SCF ENERGY
----------------

Total Energy       :       -184.66113016982709 Eh           -5024.88481 eV

Components:
Nuclear Repulsion  :         61.37929186918852 Eh            1670.21544 eV
Electronic Energy  :       -246.04042045757859 Eh           -6695.10021 eV
One Electron Energy:       -372.24187761407330 Eh          -10129.21645 eV
Two Electron Energy:        126.20145715649471 Eh            3434.11624 eV

Virial components:
Potential Energy   :       -368.71673118817409 Eh          -10033.29234 eV
Kinetic Energy     :        184.05560101834701 Eh            5008.40753 eV
Virial Ratio       :          2.00328992515376

DFT components:
N(Alpha)           :       11.000000895317 electrons
N(Beta)            :       11.000000895317 electrons
N(Total)           :       22.000001790633 electrons
E(X)               :      -17.046055124671 Eh       
E(C)               :       -0.926995884969 Eh       
E(XC)              :      -17.973051009640 Eh       

---------------
SCF CONVERGENCE
---------------

  Last Energy change         ...   -9.3854e-10  Tolerance :   1.0000e-08
  Last MAX-Density change    ...    7.4372e-06  Tolerance :   1.0000e-07
  Last RMS-Density change    ...    3.6530e-07  Tolerance :   5.0000e-09
  Last DIIS Error            ...    5.5864e-04  Tolerance :   5.0000e-07
  Last Orbital Gradient      ...    4.3801e-06  Tolerance :   1.0000e-05
  Last Orbital Rotation      ...    3.3323e-06  Tolerance :   1.0000e-05


----------------
ORBITAL ENERGIES
----------------

  NO   OCC          E(Eh)            E(eV) 
   0   2.0000     -19.227255      -523.2002 
   1   2.0000     -14.544118      -395.7656 
   2   2.0000     -14.412616      -392.1872 
   3   2.0000      -1.254783       -34.1444 
   4   2.0000      -1.099660       -29.9233 
   5   2.0000      -0.607174       -16.5220 
   6   2.0000      -0.574007       -15.6195 
   7   2.0000      -0.574007       -15.6195 
   8   2.0000      -0.480763       -13.0822 
   9   2.0000      -0.349149        -9.5008 
  10   2.0000      -0.349149        -9.5008 
  11   0.0000      -0.015540        -0.4229 
  12   0.0000      -0.015540        -0.4229 
  13   0.0000       0.066246         1.8026 
  14   0.0000       0.239548         6.5184 
  15   0.0000       0.276590         7.5264 
  16   0.0000       0.276590         7.5264 
  17   0.0000       0.281209         7.6521 
  18   0.0000       0.326057         8.8725 
  19   0.0000       0.400552        10.8996 
  20   0.0000       0.400552        10.8996 
  21   0.0000       0.413084        11.2406 
*Only the first 10 virtual orbitals were printed.

                    ********************************
                    * MULLIKEN POPULATION ANALYSIS *
                    ********************************

-----------------------
MULLIKEN ATOMIC CHARGES
-----------------------
   0 N :   -0.120909
   1 N :    0.399556
   2 O :   -0.278647
Sum of atomic charges:    0.0000000

--------------------------------
MULLIKEN REDUCED ORBITAL CHARGES
--------------------------------
  0 N s       :     3.867980  s :     3.867980
      pz      :     1.007071  p :     3.182320
      px      :     1.087624
      py      :     1.087624
      dz2     :     0.020350  d :     0.065720
      dxz     :     0.022685
      dyz     :     0.022685
      dx2y2   :     0.000000
      dxy     :     0.000000
      f0      :     0.001143  f :     0.004889
      f+1     :     0.001873
      f-1     :     0.001873
      f+2     :     0.000000
      f-2     :     0.000000
      f+3     :     0.000000
      f-3     :     0.000000

  1 N s       :     3.165542  s :     3.165542
      pz      :     0.907944  p :     3.249770
      px      :     1.170913
      py      :     1.170913
      dz2     :     0.011912  d :     0.170480
      dxz     :     0.079284
      dyz     :     0.079284
      dx2y2   :    -0.000000
      dxy     :    -0.000000
      f0      :     0.004440  f :     0.014651
      f+1     :     0.005105
      f-1     :     0.005105
      f+2     :    -0.000000
      f-2     :    -0.000000
      f+3     :     0.000000
      f-3     :     0.000000

  2 O s       :     3.901988  s :     3.901988
      pz      :     1.089109  p :     4.329044
      px      :     1.619968
      py      :     1.619968
      dz2     :     0.021086  d :     0.044541
      dxz     :     0.011728
      dyz     :     0.011728
      dx2y2   :     0.000000
      dxy     :     0.000000
      f0      :     0.001434  f :     0.003074
      f+1     :     0.000820
      f-1     :     0.000820
      f+2     :     0.000000
      f-2     :     0.000000
      f+3     :     0.000000
      f-3     :     0.000000



                     *******************************
                     * LOEWDIN POPULATION ANALYSIS *
                     *******************************

----------------------
LOEWDIN ATOMIC CHARGES
----------------------
   0 N :   -0.004181
   1 N :   -0.014277
   2 O :    0.018458

-------------------------------
LOEWDIN REDUCED ORBITAL CHARGES
-------------------------------
  0 N s       :     3.365176  s :     3.365176
      pz      :     1.324223  p :     3.431554
      px      :     1.053666
      py      :     1.053666
      dz2     :     0.075737  d :     0.176326
      dxz     :     0.050295
      dyz     :     0.050295
      dx2y2   :     0.000000
      dxy     :     0.000000
      f0      :     0.011442  f :     0.031125
      f+1     :     0.009842
      f-1     :     0.009842
      f+2     :     0.000000
      f-2     :     0.000000
      f+3     :     0.000000
      f-3     :     0.000000

  1 N s       :     2.942978  s :     2.942978
      pz      :     1.263673  p :     3.399121
      px      :     1.067724
      py      :     1.067724
      dz2     :     0.161748  d :     0.629529
      dxz     :     0.233891
      dyz     :     0.233891
      dx2y2   :     0.000000
      dxy     :     0.000000
      f0      :     0.023251  f :     0.042648
      f+1     :     0.009698
      f-1     :     0.009698
      f+2     :     0.000000
      f-2     :     0.000000
      f+3     :     0.000000
      f-3     :     0.000000

  2 O s       :     3.490140  s :     3.490140
      pz      :     1.280096  p :     4.367150
      px      :     1.543527
      py      :     1.543527
      dz2     :     0.055543  d :     0.111506
      dxz     :     0.027981
      dyz     :     0.027981
      dx2y2   :     0.000000
      dxy     :     0.000000
      f0      :     0.005993  f :     0.012746
      f+1     :     0.003377
      f-1     :     0.003377
      f+2     :     0.000000
      f-2     :     0.000000
      f+3     :     0.000000
      f-3     :     0.000000



                      *****************************
                      * MAYER POPULATION ANALYSIS *
                      *****************************

  NA   - Mulliken gross atomic population
  ZA   - Total nuclear charge
  QA   - Mulliken gross atomic charge
  VA   - Mayer's total valence
  BVA  - Mayer's bonded valence
  FA   - Mayer's free valence

  ATOM       NA         ZA         QA         VA         BVA        FA
  0 N      7.1209     7.0000    -0.1209     2.6268     2.6268     0.0000
  1 N      6.6004     7.0000     0.3996     3.9232     3.9232     0.0000
  2 O      8.2786     8.0000    -0.2786     2.1345     2.1345     0.0000

  Mayer bond orders larger than 0.100000
B(  0-N ,  1-N ) :   2.2077 B(  0-N ,  2-O ) :   0.4191 B(  1-N ,  2-O ) :   1.7154 


-------
TIMINGS
-------

Total SCF time: 0 days 0 hours 0 min 5 sec 

Total time                  ....       5.552 sec
Sum of individual times     ....       5.530 sec  ( 99.6%)

SCF preparation             ....       0.049 sec  (  0.9%)
Fock matrix formation       ....       5.441 sec  ( 98.0%)
  Startup                   ....       0.001 sec  (  0.0% of F)
  Split-RI-J                ....       0.281 sec  (  5.2% of F)
  Chain of spheres X        ....       3.744 sec  ( 68.8% of F)
  XC integration            ....       1.391 sec  ( 25.6% of F)
    XC Preparation          ....       0.000 sec  (  0.0% of XC)
    Basis function eval.    ....       0.520 sec  ( 37.4% of XC)
    Density eval.           ....       0.248 sec  ( 17.8% of XC)
    XC-Functional eval.     ....       0.094 sec  (  6.8% of XC)
    XC-Potential eval.      ....       0.475 sec  ( 34.2% of XC)
Diagonalization             ....       0.000 sec  (  0.0%)
Density matrix formation    ....       0.012 sec  (  0.2%)
Total Energy calculation    ....       0.001 sec  (  0.0%)
Population analysis         ....       0.002 sec  (  0.0%)
Orbital Transformation      ....       0.003 sec  (  0.0%)
Orbital Orthonormalization  ....       0.000 sec  (  0.0%)
DIIS solution               ....       0.015 sec  (  0.3%)
SOSCF solution              ....       0.007 sec  (  0.1%)
Finished LeanSCF after   5.6 sec

Maximum memory used throughout the entire LEANSCF-calculation: 9.1 MB

-------------------------   --------------------
FINAL SINGLE POINT ENERGY      -184.661130169827
-------------------------   --------------------

------------------------------------------------------------------------------
                         ORCA SCF GRADIENT CALCULATION
------------------------------------------------------------------------------

Nuc. rep. gradient        (SHARK) ... done (  0.0 sec)
HCore & Overlap gradient  (SHARK) ... done (  0.0 sec)
Split-RIJ-J gradient      (SHARK) ... done (  0.2 sec)
COSX-gradient                     ... done (  3.7 sec)
XC gradient                       ... done (  0.5 sec)

------------------
CARTESIAN GRADIENT
------------------

   1   N   :    0.000000071    0.000000001    0.020240806
   2   N   :   -0.000000071   -0.000000029   -0.011602727
   3   O   :   -0.000000000    0.000000029   -0.008638078

Difference to translation invariance:
           :    0.0000000000   -0.0000000000    0.0000000000

Difference to rotation invariance:
           :   -0.0000000621   -0.0000001496    0.0000000000

Norm of the Cartesian gradient     ...    0.0248783016
RMS gradient                       ...    0.0082927672
MAX gradient                       ...    0.0202408057

-------
TIMINGS
-------

Total SCF gradient time     ....        4.435 sec

Densities                   ....       0.000 sec  (  0.0%)
One electron gradient       ....       0.014 sec  (  0.3%)
RI-J Coulomb gradient       ....       0.227 sec  (  5.1%)
COSX gradient               ....       3.686 sec  ( 83.1%)
XC gradient                 ....       0.507 sec  ( 11.4%)

Maximum memory used throughout the entire SCFGRAD-calculation: 11.7 MB
------------------------------------------------------------------------------
                         ORCA GEOMETRY RELAXATION STEP
------------------------------------------------------------------------------

Reading the OPT-File                    .... done
Getting information on internals        .... done
Copying old internal coords+grads       .... done
Making the new internal coordinates     .... (2022 redundants) done
Validating the new internal coordinates .... (2022 redundants) done
Calculating the B-matrix                .... done
Calculating the G,G- and P matrices     .... done
Transforming gradient to internals      .... done
Projecting the internal gradient        .... done
Number of atoms                         ....   3
Number of internal coordinates          ....   4
Current Energy                          ....  -184.661130170 Eh
Current gradient norm                   ....     0.024878302 Eh/bohr
Maximum allowed component of the step   ....  0.300
Current trust radius                    ....  0.300
Evaluating the initial hessian          ....  (Almloef) done
Projecting the Hessian                  .... done
Forming the augmented Hessian           .... done
Diagonalizing the augmented Hessian     .... done
Last element of RFO vector              ....  0.999862057
Lowest eigenvalues of augmented Hessian:
 -0.000363993  0.544038227  0.544038227  1.091831289
Length of the computed step             ....  0.016611506
The final length of the internal step   ....  0.016611506
Converting the step to Cartesian space:
 Initial RMS(Int)=    0.0083057529
Transforming coordinates:
 Iter   0:  RMS(Cart)=    0.0053850271 RMS(Int)=    0.0083057529
done
Storing new coordinates                 .... done

                                .--------------------.
          ----------------------|Geometry convergence|-------------------------
          Item                value                   Tolerance       Converged
          ---------------------------------------------------------------------
          RMS gradient        0.0110034837            0.0001000000      NO
          MAX gradient        0.0202408057            0.0003000000      NO
          RMS step            0.0083057529            0.0020000000      NO
          MAX step            0.0146076482            0.0040000000      NO
          ........................................................
          Max(Bonds)      0.0077      Max(Angles)    0.00
          Max(Dihed)        0.00      Max(Improp)    0.00
          ---------------------------------------------------------------------

The optimization has not yet converged - more geometry cycles are needed


    ---------------------------------------------------------------------------
                         Redundant Internal Coordinates
                            (Angstroem and degrees)

        Definition                    Value    dE/dq     Step     New-Value
    ----------------------------------------------------------------------------
     1. B(N   1,N   0)                1.1133 -0.020241  0.0077    1.1210   
     2. B(O   2,N   1)                1.1781 -0.008638  0.0042    1.1823   
     3. L(N   0,N   1,O   2, 2)       180.00 -0.000000    0.00    180.00   
     4. L(N   0,N   1,O   2, 1)       180.00  0.000000   -0.00    180.00   
    ----------------------------------------------------------------------------

Geometry step timings:
Preparation and reading OPT file:      0.000 s (15.361 %)
Internal coordinates            :      0.000 s ( 5.581 %)
B/P matrices and projection     :      0.000 s (13.466 %)
Hessian update/contruction      :      0.000 s (15.924 %)
Making the step                 :      0.000 s ( 9.831 %)
Converting the step to Cartesian:      0.000 s ( 5.018 %)
Storing new data                :      0.000 s ( 4.506 %)
Checking convergence            :      0.000 s ( 0.154 %)
Final printing                  :      0.001 s (29.852 %)
Total time                      :      0.002 s

Time for energy+gradient        :     10.416 s
Time for complete geometry iter :     10.437 s

         *************************************************************
         *                GEOMETRY OPTIMIZATION CYCLE   2            *
         *************************************************************
---------------------------------
CARTESIAN COORDINATES (ANGSTROEM)
---------------------------------
  N     -0.000000   -0.000000   -1.193980
  N      0.000000    0.000000   -0.072989
  O     -0.000000   -0.000000    1.109269

----------------------------
CARTESIAN COORDINATES (A.U.)
----------------------------
  NO LB      ZA    FRAG     MASS         X           Y           Z
   0 N     7.0000    0    14.007   -0.000000   -0.000000   -2.256294
   1 N     7.0000    0    14.007    0.000000    0.000000   -0.137930
   2 O     8.0000    0    15.999   -0.000000   -0.000000    2.096215

--------------------------------
INTERNAL COORDINATES (ANGSTROEM)
--------------------------------
 N      0   0   0     0.000000000000     0.00000000     0.00000000
 N      1   0   0     1.120990034518     0.00000000     0.00000000
 O      2   1   0     1.182258478539   179.99999648     0.00000000

---------------------------
INTERNAL COORDINATES (A.U.)
---------------------------
 N      0   0   0     0.000000000000     0.00000000     0.00000000
 N      1   0   0     2.118364164094     0.00000000     0.00000000
 O      2   1   0     2.234144743945   179.99999648     0.00000000

------------------------------------------------------------------------------
                   ___                                                        
                  /   \      - P O W E R E D   B Y -                         
                 /     \                                                     
                 |  |  |   _    _      __       _____    __    __             
                 |  |  |  | |  | |    /  \     |  _  \  |  |  /  |          
                  \  \/   | |  | |   /    \    | | | |  |  | /  /          
                 / \  \   | |__| |  /  /\  \   | |_| |  |  |/  /          
                |  |  |   |  __  | /  /__\  \  |    /   |      \           
                |  |  |   | |  | | |   __   |  |    \   |  |\   \          
                \     /   | |  | | |  |  |  |  | |\  \  |  | \   \       
                 \___/    |_|  |_| |__|  |__|  |_| \__\ |__|  \__/        
                                                                              
                      - O R C A' S   B I G   F R I E N D -                    
                                      &                                       
                       - I N T E G R A L  F E E D E R -                       
                                                                              
 v1 FN, 2020, v2 2021, v3 2022-2024                                           
------------------------------------------------------------------------------


----------------------
SHARK INTEGRAL PACKAGE
----------------------

Number of atoms                             ...      3
Number of basis functions                   ...     93
Number of shells                            ...     33
Maximum angular momentum                    ...      3
Integral batch strategy                     ... SHARK/LIBINT Hybrid
RI-J (if used) integral strategy            ... SPLIT-RIJ (Revised 2003 algorithm where possible)
Printlevel                                  ...      1
Contraction scheme used                     ... SEGMENTED contraction
Prescreening option                         ... SCHWARTZ
   Thresh                                   ... 2.500e-11
   Tcut                                     ... 2.500e-12
   Tpresel                                  ... 2.500e-12 
Coulomb Range Separation                    ... NOT USED
Exchange Range Separation                   ... NOT USED
Multipole approximations                    ... NOT USED
Finite Nucleus Model                        ... NOT USED
CABS basis                                  ... NOT available
Auxiliary Coulomb fitting basis             ... AVAILABLE
   # of basis functions in Aux-J            ...    147
   # of shells in Aux-J                     ...     45
   Maximum angular momentum in Aux-J        ...      4
Auxiliary J/K fitting basis                 ... NOT available
Auxiliary Correlation fitting basis         ... NOT available
Auxiliary 'external' fitting basis          ... NOT available

Checking pre-screening integrals            ... done (  0.0 sec) Dimension = 33
Check shell pair data                       ... done (  0.0 sec)
Shell pair information
Shell pair cut-off parameter TPreSel        ...   2.5e-12
Total number of shell pairs                 ...       561
Shell pairs after pre-screening             ...       554
Total number of primitive shell pairs       ...      1896
Primitive shell pairs kept                  ...      1612
          la=0 lb=0:    114 shell pairs
          la=1 lb=0:    135 shell pairs
          la=1 lb=1:     45 shell pairs
          la=2 lb=0:     89 shell pairs
          la=2 lb=1:     54 shell pairs
          la=2 lb=2:     21 shell pairs
          la=3 lb=0:     45 shell pairs
          la=3 lb=1:     27 shell pairs
          la=3 lb=2:     18 shell pairs
          la=3 lb=3:      6 shell pairs

Calculating one electron integrals          ... done (  0.0 sec)
Calculating RI/J V-Matrix + Cholesky decomp.... done (  0.0 sec)
Calculating Nuclear repulsion               ... done (  0.0 sec) ENN=     61.062718591402 Eh

Diagonalization of the overlap matrix:
Smallest eigenvalue                        ... 1.247e-04
Time for diagonalization                   ...    0.001 sec
Threshold for overlap eigenvalues          ... 1.000e-07
Number of eigenvalues below threshold      ... 0
Time for construction of square roots      ...    0.000 sec
Total time needed                          ...    0.001 sec

-------------------
DFT GRID GENERATION
-------------------

General Integration Accuracy     IntAcc      ... 4.388
Radial Grid Type                 RadialGrid  ... OptM3 with GC (2021)
Angular Grid (max. ang.)         AngularGrid ... 4 (Lebedev-302)
Angular grid pruning method      GridPruning ... 4 (adaptive)
Weight generation scheme         WeightScheme... mBecke (2022)
Basis function cutoff            BFCut       ... 1.0000e-11
Integration weight cutoff        WCut        ... 1.0000e-14
Partially contracted basis set               ... off
Rotationally invariant grid construction     ... off
Angular grids for H and He will be reduced by one unit

Total number of grid points                  ...    18354
Total number of batches                      ...      288
Average number of points per batch           ...       63
Average number of grid points per atom       ...     6118

--------------------
COSX GRID GENERATION
--------------------

GRIDX 1
-------
General Integration Accuracy     IntAcc      ... 3.816
Radial Grid Type                 RadialGrid  ... OptM3 with GC (2021)
Angular Grid (max. ang.)         AngularGrid ... 1 (Lebedev-50)
Angular grid pruning method      GridPruning ... 4 (adaptive)
Weight generation scheme         WeightScheme... mBecke (2022)
Basis function cutoff            BFCut       ... 1.0000e-11
Integration weight cutoff        WCut        ... 1.0000e-14
Partially contracted basis set               ... on
Rotationally invariant grid construction     ... off
Angular grids for H and He will be reduced by one unit

Total number of grid points                  ...     2293
Total number of batches                      ...       20
Average number of points per batch           ...      114
Average number of grid points per atom       ...      764
UseSFitting                                  ... on

GRIDX 2
-------
General Integration Accuracy     IntAcc      ... 4.020
Radial Grid Type                 RadialGrid  ... OptM3 with GC (2021)
Angular Grid (max. ang.)         AngularGrid ... 2 (Lebedev-110)
Angular grid pruning method      GridPruning ... 4 (adaptive)
Weight generation scheme         WeightScheme... mBecke (2022)
Basis function cutoff            BFCut       ... 1.0000e-11
Integration weight cutoff        WCut        ... 1.0000e-14
Partially contracted basis set               ... on
Rotationally invariant grid construction     ... off
Angular grids for H and He will be reduced by one unit

Total number of grid points                  ...     5631
Total number of batches                      ...       45
Average number of points per batch           ...      125
Average number of grid points per atom       ...     1877
UseSFitting                                  ... on

GRIDX 3
-------
General Integration Accuracy     IntAcc      ... 4.338
Radial Grid Type                 RadialGrid  ... OptM3 with GC (2021)
Angular Grid (max. ang.)         AngularGrid ... 3 (Lebedev-194)
Angular grid pruning method      GridPruning ... 4 (adaptive)
Weight generation scheme         WeightScheme... mBecke (2022)
Basis function cutoff            BFCut       ... 1.0000e-11
Integration weight cutoff        WCut        ... 1.0000e-14
Partially contracted basis set               ... on
Rotationally invariant grid construction     ... off
Angular grids for H and He will be reduced by one unit

Total number of grid points                  ...    12566
Total number of batches                      ...      100
Average number of points per batch           ...      125
Average number of grid points per atom       ...     4189
UseSFitting                                  ... on
Initializing property integral containers    ... done (  0.0 sec)

SHARK setup successfully completed in   0.2 seconds

Maximum memory used throughout the entire STARTUP-calculation: 13.8 MB
Occupation numbers will be reassigned to an Aufbau configuration
             **** ENERGY FILE WAS UPDATED (n2o_b3lyp_def2_TZVP.en.tmp) ****
Finished Guess after   0.0 sec
Maximum memory used throughout the entire GUESS-calculation: 9.0 MB
----------------------------------------D-I-I-S--------------------------------------------
Iteration    Energy (Eh)           Delta-E    RMSDP     MaxDP     DIISErr   Damp  Time(sec)
-------------------------------------------------------------------------------------------
               ***  Starting incremental Fock matrix formation  ***
    1    -184.6612440160711799     0.00e+00  1.20e-04  2.14e-03  5.25e-03  0.700   0.5
    2    -184.6612672942572431    -2.33e-05  9.57e-05  1.90e-03  3.44e-03  0.700   0.3
                               ***Turning on AO-DIIS***
                              *** Initializing SOSCF ***
---------------------------------------S-O-S-C-F--------------------------------------
Iteration    Energy (Eh)           Delta-E    RMSDP     MaxDP     MaxGrad    Time(sec)
--------------------------------------------------------------------------------------
    3    -184.6612823958653280    -1.51e-05  2.53e-04  5.34e-03  2.40e-03     0.3
               *** Restarting incremental Fock matrix formation ***
    4    -184.6613160893345480    -3.37e-05  4.31e-05  9.89e-04  4.25e-04     0.6
    5    -184.6613128732145697     3.22e-06  2.62e-05  5.05e-04  8.66e-04     0.5
    6    -184.6613171498796078    -4.28e-06  1.84e-05  2.84e-04  1.39e-04     0.4
    7    -184.6613162753426991     8.75e-07  1.37e-05  2.30e-04  3.74e-04     0.4
    8    -184.6613172665637990    -9.91e-07  1.08e-06  2.31e-05  7.78e-06     0.4
    9    -184.6613172678308956    -1.27e-09  4.89e-07  1.07e-05  6.31e-06     0.4
                 **** Energy Check signals convergence ****

               *****************************************************
               *                     SUCCESS                       *
               *           SCF CONVERGED AFTER   9 CYCLES          *
               *****************************************************

Recomputing exchange energy using gridx3       ... done (    0.698 sec)
Old exchange energy                            :     -4.257848008 Eh
New exchange energy                            :     -4.257849430 Eh
Exchange energy change after final integration :     -0.000001421 Eh
Total energy after final integration           :   -184.661318689 Eh
             **** ENERGY FILE WAS UPDATED (n2o_b3lyp_def2_TZVP.en.tmp) ****

----------------
TOTAL SCF ENERGY
----------------

Total Energy       :       -184.66131868931009 Eh           -5024.88994 eV

Components:
Nuclear Repulsion  :         61.06271859140172 Eh            1661.60105 eV
Electronic Energy  :       -245.72403585923260 Eh           -6686.49095 eV
One Electron Energy:       -371.63017599081087 Eh          -10112.57120 eV
Two Electron Energy:        125.90614013157827 Eh            3426.08025 eV

Virial components:
Potential Energy   :       -368.65999629451159 Eh          -10031.74850 eV
Kinetic Energy     :        183.99867760520149 Eh            5006.85856 eV
Virial Ratio       :          2.00360133612226

DFT components:
N(Alpha)           :       11.000000894645 electrons
N(Beta)            :       11.000000894645 electrons
N(Total)           :       22.000001789290 electrons
E(X)               :      -17.036013765481 Eh       
E(C)               :       -0.926411729856 Eh       
E(XC)              :      -17.962425495337 Eh       

---------------
SCF CONVERGENCE
---------------

  Last Energy change         ...    1.2671e-09  Tolerance :   1.0000e-08
  Last MAX-Density change    ...    1.0729e-05  Tolerance :   1.0000e-07
  Last RMS-Density change    ...    4.8930e-07  Tolerance :   5.0000e-09
  Last DIIS Error            ...    2.4045e-03  Tolerance :   5.0000e-07
  Last Orbital Gradient      ...    6.3082e-06  Tolerance :   1.0000e-05
  Last Orbital Rotation      ...    4.6508e-06  Tolerance :   1.0000e-05


Total SCF time: 0 days 0 hours 0 min 4 sec 
Finished LeanSCF after   4.7 sec

Maximum memory used throughout the entire LEANSCF-calculation: 9.2 MB

-------------------------   --------------------
FINAL SINGLE POINT ENERGY      -184.661318689310
-------------------------   --------------------

------------------------------------------------------------------------------
                         ORCA SCF GRADIENT CALCULATION
------------------------------------------------------------------------------

Nuc. rep. gradient        (SHARK) ... done (  0.0 sec)
HCore & Overlap gradient  (SHARK) ... done (  0.0 sec)
Split-RIJ-J gradient      (SHARK) ... done (  0.2 sec)
COSX-gradient                     ... done (  3.3 sec)
XC gradient                       ... done (  0.5 sec)

------------------
CARTESIAN GRADIENT
------------------

   1   N   :   -0.000000093   -0.000000040    0.000527348
   2   N   :    0.000000131    0.000000014    0.000535389
   3   O   :   -0.000000038    0.000000026   -0.001062737

Difference to translation invariance:
           :    0.0000000000   -0.0000000000    0.0000000000

Difference to rotation invariance:
           :   -0.0000001431    0.0000001114   -0.0000000000

Norm of the Cartesian gradient     ...    0.0013015940
RMS gradient                       ...    0.0004338647
MAX gradient                       ...    0.0010627369

-------
TIMINGS
-------

Total SCF gradient time     ....        4.047 sec

Densities                   ....       0.000 sec  (  0.0%)
One electron gradient       ....       0.014 sec  (  0.3%)
RI-J Coulomb gradient       ....       0.221 sec  (  5.5%)
COSX gradient               ....       3.301 sec  ( 81.6%)
XC gradient                 ....       0.510 sec  ( 12.6%)

Maximum memory used throughout the entire SCFGRAD-calculation: 11.7 MB
------------------------------------------------------------------------------
                         ORCA GEOMETRY RELAXATION STEP
------------------------------------------------------------------------------

Reading the OPT-File                    .... done
Getting information on internals        .... done
Copying old internal coords+grads       .... done
Making the new internal coordinates     .... (2022 redundants) done
Validating the new internal coordinates .... (2022 redundants) done
Calculating the B-matrix                .... done
Calculating the G,G- and P matrices     .... done
Transforming gradient to internals      .... done
Projecting the internal gradient        .... done
Number of atoms                         ....   3
Number of internal coordinates          ....   4
Current Energy                          ....  -184.661318689 Eh
Current gradient norm                   ....     0.001301594 Eh/bohr
Maximum allowed component of the step   ....  0.300
Current trust radius                    ....  0.300
Updating the Hessian (BFGS)             .... done
Forming the augmented Hessian           .... done
Diagonalizing the augmented Hessian     .... done
Last element of RFO vector              ....  0.999999380
Lowest eigenvalues of augmented Hessian:
 -0.000001317  0.544038227  0.544038227  1.044022512
Length of the computed step             ....  0.001113456
The final length of the internal step   ....  0.001113456
Converting the step to Cartesian space:
 Initial RMS(Int)=    0.0005567281
Transforming coordinates:
 Iter   0:  RMS(Cart)=    0.0003521150 RMS(Int)=    0.0005567281
done
Storing new coordinates                 .... done
The predicted energy change is          ....    -0.000000659
Previously predicted energy change      ....    -0.000182047
Actually observed energy change         ....    -0.000188519
Ratio of predicted to observed change   ....     1.035556477
New trust radius                        ....     0.450000000

                                .--------------------.
          ----------------------|Geometry convergence|-------------------------
          Item                value                   Tolerance       Converged
          ---------------------------------------------------------------------
          Energy change      -0.0001885195            0.0000050000      NO
          RMS gradient        0.0005931916            0.0001000000      NO
          MAX gradient        0.0010627369            0.0003000000      NO
          RMS step            0.0005567281            0.0020000000      YES
          MAX step            0.0010307755            0.0040000000      YES
          ........................................................
          Max(Bonds)      0.0005      Max(Angles)    0.00
          Max(Dihed)        0.00      Max(Improp)    0.00
          ---------------------------------------------------------------------

The optimization has not yet converged - more geometry cycles are needed


    ---------------------------------------------------------------------------
                         Redundant Internal Coordinates
                            (Angstroem and degrees)

        Definition                    Value    dE/dq     Step     New-Value
    ----------------------------------------------------------------------------
     1. B(N   1,N   0)                1.1210 -0.000527  0.0002    1.1212   
     2. B(O   2,N   1)                1.1823 -0.001063  0.0005    1.1828   
     3. L(N   0,N   1,O   2, 2)       180.00  0.000000   -0.00    180.00   
     4. L(N   0,N   1,O   2, 1)       180.00 -0.000000    0.00    180.00   
    ----------------------------------------------------------------------------

Geometry step timings:
Preparation and reading OPT file:      0.000 s (13.205 %)
Internal coordinates            :      0.000 s ( 5.640 %)
B/P matrices and projection     :      0.000 s (12.105 %)
Hessian update/contruction      :      0.000 s (21.939 %)
Making the step                 :      0.000 s ( 8.459 %)
Converting the step to Cartesian:      0.000 s ( 3.989 %)
Storing new data                :      0.000 s ( 4.402 %)
Checking convergence            :      0.000 s ( 2.476 %)
Final printing                  :      0.000 s (27.579 %)
Total time                      :      0.001 s

Time for energy+gradient        :      9.057 s
Time for complete geometry iter :      9.076 s

         *************************************************************
         *                GEOMETRY OPTIMIZATION CYCLE   3            *
         *************************************************************
---------------------------------
CARTESIAN COORDINATES (ANGSTROEM)
---------------------------------
  N      0.000000   -0.000000   -1.194310
  N     -0.000000    0.000000   -0.073097
  O      0.000000   -0.000000    1.109707

----------------------------
CARTESIAN COORDINATES (A.U.)
----------------------------
  NO LB      ZA    FRAG     MASS         X           Y           Z
   0 N     7.0000    0    14.007    0.000000   -0.000000   -2.256919
   1 N     7.0000    0    14.007   -0.000000    0.000000   -0.138133
   2 O     8.0000    0    15.999    0.000000   -0.000000    2.097042

--------------------------------
INTERNAL COORDINATES (ANGSTROEM)
--------------------------------
 N      0   0   0     0.000000000000     0.00000000     0.00000000
 N      1   0   0     1.121212846800     0.00000000     0.00000000
 O      2   1   0     1.182803941446   179.99999759     0.00000000

---------------------------
INTERNAL COORDINATES (A.U.)
---------------------------
 N      0   0   0     0.000000000000     0.00000000     0.00000000
 N      1   0   0     2.118785218285     0.00000000     0.00000000
 O      2   1   0     2.235175519456   179.99999759     0.00000000

------------------------------------------------------------------------------
                   ___                                                        
                  /   \      - P O W E R E D   B Y -                         
                 /     \                                                     
                 |  |  |   _    _      __       _____    __    __             
                 |  |  |  | |  | |    /  \     |  _  \  |  |  /  |          
                  \  \/   | |  | |   /    \    | | | |  |  | /  /          
                 / \  \   | |__| |  /  /\  \   | |_| |  |  |/  /          
                |  |  |   |  __  | /  /__\  \  |    /   |      \           
                |  |  |   | |  | | |   __   |  |    \   |  |\   \          
                \     /   | |  | | |  |  |  |  | |\  \  |  | \   \       
                 \___/    |_|  |_| |__|  |__|  |_| \__\ |__|  \__/        
                                                                              
                      - O R C A' S   B I G   F R I E N D -                    
                                      &                                       
                       - I N T E G R A L  F E E D E R -                       
                                                                              
 v1 FN, 2020, v2 2021, v3 2022-2024                                           
------------------------------------------------------------------------------


----------------------
SHARK INTEGRAL PACKAGE
----------------------

Number of atoms                             ...      3
Number of basis functions                   ...     93
Number of shells                            ...     33
Maximum angular momentum                    ...      3
Integral batch strategy                     ... SHARK/LIBINT Hybrid
RI-J (if used) integral strategy            ... SPLIT-RIJ (Revised 2003 algorithm where possible)
Printlevel                                  ...      1
Contraction scheme used                     ... SEGMENTED contraction
Prescreening option                         ... SCHWARTZ
   Thresh                                   ... 2.500e-11
   Tcut                                     ... 2.500e-12
   Tpresel                                  ... 2.500e-12 
Coulomb Range Separation                    ... NOT USED
Exchange Range Separation                   ... NOT USED
Multipole approximations                    ... NOT USED
Finite Nucleus Model                        ... NOT USED
CABS basis                                  ... NOT available
Auxiliary Coulomb fitting basis             ... AVAILABLE
   # of basis functions in Aux-J            ...    147
   # of shells in Aux-J                     ...     45
   Maximum angular momentum in Aux-J        ...      4
Auxiliary J/K fitting basis                 ... NOT available
Auxiliary Correlation fitting basis         ... NOT available
Auxiliary 'external' fitting basis          ... NOT available

Checking pre-screening integrals            ... done (  0.0 sec) Dimension = 33
Check shell pair data                       ... done (  0.0 sec)
Shell pair information
Shell pair cut-off parameter TPreSel        ...   2.5e-12
Total number of shell pairs                 ...       561
Shell pairs after pre-screening             ...       554
Total number of primitive shell pairs       ...      1896
Primitive shell pairs kept                  ...      1612
          la=0 lb=0:    114 shell pairs
          la=1 lb=0:    135 shell pairs
          la=1 lb=1:     45 shell pairs
          la=2 lb=0:     89 shell pairs
          la=2 lb=1:     54 shell pairs
          la=2 lb=2:     21 shell pairs
          la=3 lb=0:     45 shell pairs
          la=3 lb=1:     27 shell pairs
          la=3 lb=2:     18 shell pairs
          la=3 lb=3:      6 shell pairs

Calculating one electron integrals          ... done (  0.0 sec)
Calculating RI/J V-Matrix + Cholesky decomp.... done (  0.0 sec)
Calculating Nuclear repulsion               ... done (  0.0 sec) ENN=     61.042272430638 Eh

Diagonalization of the overlap matrix:
Smallest eigenvalue                        ... 1.249e-04
Time for diagonalization                   ...    0.001 sec
Threshold for overlap eigenvalues          ... 1.000e-07
Number of eigenvalues below threshold      ... 0
Time for construction of square roots      ...    0.000 sec
Total time needed                          ...    0.002 sec

-------------------
DFT GRID GENERATION
-------------------

General Integration Accuracy     IntAcc      ... 4.388
Radial Grid Type                 RadialGrid  ... OptM3 with GC (2021)
Angular Grid (max. ang.)         AngularGrid ... 4 (Lebedev-302)
Angular grid pruning method      GridPruning ... 4 (adaptive)
Weight generation scheme         WeightScheme... mBecke (2022)
Basis function cutoff            BFCut       ... 1.0000e-11
Integration weight cutoff        WCut        ... 1.0000e-14
Partially contracted basis set               ... off
Rotationally invariant grid construction     ... off
Angular grids for H and He will be reduced by one unit

Total number of grid points                  ...    18354
Total number of batches                      ...      288
Average number of points per batch           ...       63
Average number of grid points per atom       ...     6118

--------------------
COSX GRID GENERATION
--------------------

GRIDX 1
-------
General Integration Accuracy     IntAcc      ... 3.816
Radial Grid Type                 RadialGrid  ... OptM3 with GC (2021)
Angular Grid (max. ang.)         AngularGrid ... 1 (Lebedev-50)
Angular grid pruning method      GridPruning ... 4 (adaptive)
Weight generation scheme         WeightScheme... mBecke (2022)
Basis function cutoff            BFCut       ... 1.0000e-11
Integration weight cutoff        WCut        ... 1.0000e-14
Partially contracted basis set               ... on
Rotationally invariant grid construction     ... off
Angular grids for H and He will be reduced by one unit

Total number of grid points                  ...     2293
Total number of batches                      ...       20
Average number of points per batch           ...      114
Average number of grid points per atom       ...      764
UseSFitting                                  ... on

GRIDX 2
-------
General Integration Accuracy     IntAcc      ... 4.020
Radial Grid Type                 RadialGrid  ... OptM3 with GC (2021)
Angular Grid (max. ang.)         AngularGrid ... 2 (Lebedev-110)
Angular grid pruning method      GridPruning ... 4 (adaptive)
Weight generation scheme         WeightScheme... mBecke (2022)
Basis function cutoff            BFCut       ... 1.0000e-11
Integration weight cutoff        WCut        ... 1.0000e-14
Partially contracted basis set               ... on
Rotationally invariant grid construction     ... off
Angular grids for H and He will be reduced by one unit

Total number of grid points                  ...     5631
Total number of batches                      ...       45
Average number of points per batch           ...      125
Average number of grid points per atom       ...     1877
UseSFitting                                  ... on

GRIDX 3
-------
General Integration Accuracy     IntAcc      ... 4.338
Radial Grid Type                 RadialGrid  ... OptM3 with GC (2021)
Angular Grid (max. ang.)         AngularGrid ... 3 (Lebedev-194)
Angular grid pruning method      GridPruning ... 4 (adaptive)
Weight generation scheme         WeightScheme... mBecke (2022)
Basis function cutoff            BFCut       ... 1.0000e-11
Integration weight cutoff        WCut        ... 1.0000e-14
Partially contracted basis set               ... on
Rotationally invariant grid construction     ... off
Angular grids for H and He will be reduced by one unit

Total number of grid points                  ...    12566
Total number of batches                      ...      100
Average number of points per batch           ...      125
Average number of grid points per atom       ...     4189
UseSFitting                                  ... on
Initializing property integral containers    ... done (  0.0 sec)

SHARK setup successfully completed in   0.2 seconds

Maximum memory used throughout the entire STARTUP-calculation: 13.8 MB
Occupation numbers will be reassigned to an Aufbau configuration
             **** ENERGY FILE WAS UPDATED (n2o_b3lyp_def2_TZVP.en.tmp) ****
Finished Guess after   0.0 sec
Maximum memory used throughout the entire GUESS-calculation: 9.0 MB
----------------------------------------D-I-I-S--------------------------------------------
Iteration    Energy (Eh)           Delta-E    RMSDP     MaxDP     DIISErr   Damp  Time(sec)
-------------------------------------------------------------------------------------------
               ***  Starting incremental Fock matrix formation  ***
                              *** Initializing SOSCF ***
---------------------------------------S-O-S-C-F--------------------------------------
[...]
                      *****************************

  NA   - Mulliken gross atomic population
  ZA   - Total nuclear charge
  QA   - Mulliken gross atomic charge
  VA   - Mayer's total valence
  BVA  - Mayer's bonded valence
  FA   - Mayer's free valence

  ATOM       NA         ZA         QA         VA         BVA        FA
  0 N      7.1156     7.0000    -0.1156     2.6320     2.6320     0.0000
  1 N      6.6078     7.0000     0.3922     3.9180     3.9180     0.0000
  2 O      8.2766     8.0000    -0.2766     2.1325     2.1325     0.0000

  Mayer bond orders larger than 0.100000
B(  0-N ,  1-N ) :   2.2087 B(  0-N ,  2-O ) :   0.4233 B(  1-N ,  2-O ) :   1.7093 


-------
TIMINGS
-------

Total SCF time: 0 days 0 hours 0 min 2 sec 

Total time                  ....       2.846 sec
Sum of individual times     ....       2.833 sec  ( 99.5%)

SCF preparation             ....       0.049 sec  (  1.7%)
Fock matrix formation       ....       2.771 sec  ( 97.4%)
  Startup                   ....       0.001 sec  (  0.0% of F)
  Split-RI-J                ....       0.100 sec  (  3.6% of F)
  Chain of spheres X        ....       2.152 sec  ( 77.7% of F)
  XC integration            ....       0.512 sec  ( 18.5% of F)
    XC Preparation          ....       0.000 sec  (  0.0% of XC)
    Basis function eval.    ....       0.192 sec  ( 37.6% of XC)
    Density eval.           ....       0.091 sec  ( 17.7% of XC)
    XC-Functional eval.     ....       0.035 sec  (  6.9% of XC)
    XC-Potential eval.      ....       0.176 sec  ( 34.3% of XC)
Diagonalization             ....       0.000 sec  (  0.0%)
Density matrix formation    ....       0.001 sec  (  0.0%)
Total Energy calculation    ....       0.001 sec  (  0.0%)
Population analysis         ....       0.004 sec  (  0.1%)
Orbital Transformation      ....       0.001 sec  (  0.0%)
Orbital Orthonormalization  ....       0.000 sec  (  0.0%)
DIIS solution               ....       0.002 sec  (  0.1%)
SOSCF solution              ....       0.004 sec  (  0.2%)
Finished LeanSCF after   2.9 sec

Maximum memory used throughout the entire LEANSCF-calculation: 9.4 MB

-------------------------   --------------------
FINAL SINGLE POINT ENERGY      -184.661319457903
-------------------------   --------------------

                                *** OPTIMIZATION RUN DONE ***


------------------------------------------------------------------------------
                              ORCA PROPERTY CALCULATIONS
------------------------------------------------------------------------------

GBWName                                 ... n2o_b3lyp_def2_TZVP.gbw
Number of atoms                         ...      3
Number of basis functions               ...     93
Max core memory                         ...   1024 MB

Electric properties:
Dipole moment                           ... YES
Quadrupole moment                       ...  NO
Static polarizability (Dipole/Dipole)   ...  NO
Static polarizability (Dipole/Quad.)    ...  NO
Static polarizability (Quad./Quad.)     ...  NO
Static polarizability (Velocity)        ...  NO

Atomic electric properties:
Dipole moment                           ...  NO
Quadrupole moment                       ...  NO
Static polarizability                   ...  NO

Choice of electric origin               ... Center of mass
Position of electric origin             ...     0.000000     0.000000     0.000078

General magnetic properties:
Magnetizability                         ...  NO

EPR properties:
g-Tensor (aka g-matrix)                 ...  NO
Zero-Field splitting spin-orbit         ...  NO
Zero-field splitting spin-spin          ...  NO
Hyperfine couplings                     ...  NO (   0 nuclei)
Quadrupole couplings                    ...  NO (   0 nuclei)
Contact density                         ...  NO (   0 nuclei)

NMR properties:
Chemical shifts                         ...  NO (   0 nuclei)
Spin-rotation constants                 ...  NO (   0 nuclei)
Spin-spin couplings                     ...  NO (   0 nuclei,    0 pairs)

Choice of magnetic origin               ... GIAO
Position of magnetic origin             ...     0.000000     0.000000     0.000000

Properties with geometric perturbations:
SCF Hessian                             ...  NO
IR spectrum                             ...  NO
VCD spectrum                            ...  NO
X-ray spectroscopy properties:
SCF XES/XAS/RIXS spectra                ...  NO


-------------
DIPOLE MOMENT
-------------

Method             : SCF
Type of density    : Electron Density
Multiplicity       :   1
Irrep              :   0
Energy             :  -184.6613194579026640 Eh
Relativity type    : 
Basis              : AO
                                X                 Y                 Z
Electronic contribution:     -0.000000033      -0.000000009      -0.029248185
Nuclear contribution   :      0.000000000       0.000000000       0.009432430
                        -----------------------------------------
Total Dipole Moment    :     -0.000000033      -0.000000009      -0.019815755
                        -----------------------------------------
Magnitude (a.u.)       :      0.019815755
Magnitude (Debye)      :      0.050367647



--------------------
Rotational spectrum 
--------------------
 
Rotational constants in cm-1:             0.000000             0.423975             0.423975 
Rotational constants in MHz :             0.000000         12710.460914         12710.460914 

Dipole components along the rotational axes: 
x,y,z [a.u.] :    -0.019816    -0.000000     0.000000 
x,y,z [Debye]:    -0.050368    -0.000000     0.000000 

 

Dipole moment calculation done in   0.0 sec 

Maximum memory used throughout the entire PROP-calculation: 6.1 MB

----------------------------------------------------------------------------
                           ORCA NUMERICAL FREQUENCIES
----------------------------------------------------------------------------

Number of atoms                ... 3
Central differences            ... used
Number of displacements        ... 18
Numerical increment            ... 5.000e-03 bohr
IR-spectrum generation         ... on
Raman-spectrum generation      ... off
Surface Crossing Hessian       ... off

The output will be reduced. Please look at the following files:
SCF program output             ... >n2o_b3lyp_def2_TZVP.lastscf
Integral program output        ... >n2o_b3lyp_def2_TZVP.lastint
Gradient program output        ... >n2o_b3lyp_def2_TZVP.lastgrad
Dipole moment program output   ... >n2o_b3lyp_def2_TZVP.lastmom

	<< Calculating gradient on displaced geometry   1 (of  18) >>
	<< Calculating gradient on displaced geometry   2 (of  18) >>
	<< Calculating gradient on displaced geometry   3 (of  18) >>
	<< Calculating gradient on displaced geometry   4 (of  18) >>
	<< Calculating gradient on displaced geometry   5 (of  18) >>
	<< Calculating gradient on displaced geometry   6 (of  18) >>
	<< Calculating gradient on displaced geometry   7 (of  18) >>
	<< Calculating gradient on displaced geometry   8 (of  18) >>
	<< Calculating gradient on displaced geometry   9 (of  18) >>
	<< Calculating gradient on displaced geometry  10 (of  18) >>
	<< Calculating gradient on displaced geometry  11 (of  18) >>
	<< Calculating gradient on displaced geometry  12 (of  18) >>
	<< Calculating gradient on displaced geometry  13 (of  18) >>
	<< Calculating gradient on displaced geometry  14 (of  18) >>
	<< Calculating gradient on displaced geometry  15 (of  18) >>
	<< Calculating gradient on displaced geometry  16 (of  18) >>
	<< Calculating gradient on displaced geometry  17 (of  18) >>
	<< Calculating gradient on displaced geometry  18 (of  18) >>

-----------------------
VIBRATIONAL FREQUENCIES
-----------------------

Scaling factor for frequencies =  1.000000000  (already applied!)

     0:       0.00 cm**-1
     1:       0.00 cm**-1
     2:       0.00 cm**-1
     3:       0.00 cm**-1
     4:       0.00 cm**-1
     5:     616.53 cm**-1
     6:     616.55 cm**-1
     7:    1333.98 cm**-1
     8:    2343.98 cm**-1


------------
NORMAL MODES
------------

These modes are the Cartesian displacements weighted by the diagonal matrix
M(i,i)=1/sqrt(m[i]) where m[i] is the mass of the displaced atom
Thus, these vectors are normalized but *not* orthogonal

                  0          1          2          3          4          5    
      0       0.000000   0.000000   0.000000   0.000000   0.000000   0.321449
      1       0.000000   0.000000   0.000000   0.000000   0.000000  -0.281194
      2       0.000000   0.000000   0.000000   0.000000   0.000000  -0.000004
      3       0.000000   0.000000   0.000000   0.000000   0.000000  -0.626117
      4       0.000000   0.000000   0.000000   0.000000   0.000000   0.547710
      5       0.000000   0.000000   0.000000   0.000000   0.000000  -0.000002
      6       0.000000   0.000000   0.000000   0.000000   0.000000   0.266735
      7       0.000000   0.000000   0.000000   0.000000   0.000000  -0.233332
      8       0.000000   0.000000   0.000000   0.000000   0.000000   0.000005
                  6          7          8    
      0      -0.281194  -0.000001   0.000002
      1      -0.321449  -0.000005   0.000001
      2      -0.000009   0.625803  -0.566344
      3       0.547710   0.000001  -0.000003
      4       0.626117   0.000011  -0.000002
      5       0.000001   0.226657   0.798675
      6      -0.233332  -0.000001   0.000001
      7      -0.266735  -0.000004   0.000001
      8       0.000007  -0.746322  -0.203404


-----------
IR SPECTRUM
-----------

 Mode   freq       eps      Int      T**2         TX        TY        TZ
       cm**-1   L/(mol*cm) km/mol    a.u.
----------------------------------------------------------------------------
  5:    616.53   0.001229    6.21  0.000622  (-0.018769  0.016419 -0.000001)
  6:    616.55   0.001229    6.21  0.000622  ( 0.016418  0.018769  0.000001)
  7:   1333.98   0.013291   67.17  0.003109  ( 0.000000  0.000000  0.055760)
  8:   2343.98   0.075605  382.08  0.010066  (-0.000000 -0.000000  0.100328)

* The epsilon (eps) is given for a Dirac delta lineshape.
** The dipole moment derivative (T) already includes vibrational overlap.

The first frequency considered to be a vibration is 5
The total number of vibrations considered is 4


--------------------------
THERMOCHEMISTRY AT 298.15K
--------------------------

Temperature         ...   298.15 K
Pressure            ...     1.00 atm
Total Mass          ...    44.01 AMU
Quasi RRHO          ...     True
Cut-Off Frequency   ...     1.00 cm^-1
The molecule is recognized as being linear

Throughout the following assumptions are being made:
  (1) The electronic state is orbitally nondegenerate
  (2) There are no thermally accessible electronically excited states
  (3) Hindered rotations indicated by low frequency modes are not
      treated as such but are treated as vibrations and this may
      cause some error
  (4) All equations used are the standard statistical mechanics
      equations for an ideal gas
  (5) All vibrations are strictly harmonic

freq.     616.53  E(vib)   ...       0.09 
freq.     616.55  E(vib)   ...       0.09 
freq.    1333.98  E(vib)   ...       0.01 
freq.    2343.98  E(vib)   ...       0.00 

------------
INNER ENERGY
------------

The inner energy is: U= E(el) + E(ZPE) + E(vib) + E(rot) + E(trans)
    E(el)   - is the total energy from the electronic structure calculation
              = E(kin-el) + E(nuc-el) + E(el-el) + E(nuc-nuc)
    E(ZPE)  - the the zero temperature vibrational energy from the frequency calculation
    E(vib)  - the the finite temperature correction to E(ZPE) due to population
              of excited vibrational states
    E(rot)  - is the rotational thermal energy
    E(trans)- is the translational thermal energy

Summary of contributions to the inner energy U:
Electronic energy                ...   -184.66131946 Eh
Zero point energy                ...      0.01118815 Eh       7.02 kcal/mol
Thermal vibrational correction   ...      0.00031206 Eh       0.20 kcal/mol
Thermal rotational correction    ...      0.00094418 Eh       0.59 kcal/mol
Thermal translational correction ...      0.00141627 Eh       0.89 kcal/mol
-----------------------------------------------------------------------
Total thermal energy                   -184.64745879 Eh


Summary of corrections to the electronic energy:
(perhaps to be used in another calculation)
Total thermal correction                  0.00267251 Eh       1.68 kcal/mol
Non-thermal (ZPE) correction              0.01118815 Eh       7.02 kcal/mol
-----------------------------------------------------------------------
Total correction                          0.01386067 Eh       8.70 kcal/mol


--------
ENTHALPY
--------

The enthalpy is H = U + kB*T
                kB is Boltzmann's constant
Total thermal energy              ...   -184.64745879 Eh 
Thermal Enthalpy correction       ...      0.00094421 Eh       0.59 kcal/mol
-----------------------------------------------------------------------
Total Enthalpy                    ...   -184.64651458 Eh


Note: Rotational entropy computed according to Herzberg 
Infrared and Raman Spectra, Chapter V,1, Van Nostrand Reinhold, 1945 
Point Group:  C(inf)v, Symmetry Number:   1  
Rotational constants in cm-1:     0.000000     0.423975     0.423975 

Vibrational entropy computed according to the QRRHO of S. Grimme
Chem.Eur.J. 2012 18 9955 using a reference frequency of 100.0 cm-1


-------
ENTROPY
-------

The entropy contributions are T*S = T*(S(el)+S(vib)+S(rot)+S(trans))
     S(el)   - electronic entropy
     S(vib)  - vibrational entropy
     S(rot)  - rotational entropy
     S(trans)- translational entropy
The entropies will be listed as multiplied by the temperature to get
units of energy

Electronic entropy                ...      0.00000000 Eh      0.00 kcal/mol
Vibrational entropy               ...      0.00041292 Eh      0.26 kcal/mol
Rotational entropy                ...      0.00679045 Eh      4.26 kcal/mol
Translational entropy             ...      0.01770893 Eh     11.11 kcal/mol
-----------------------------------------------------------------------
Final entropy term                ...      0.02491229 Eh     15.63 kcal/mol


-------------------
GIBBS FREE ENERGY
-------------------

The Gibbs free energy is G = H - T*S

Total enthalpy                    ...   -184.64651458 Eh 
Total entropy correction          ...     -0.02491229 Eh    -15.63 kcal/mol
-----------------------------------------------------------------------
Final Gibbs free energy         ...   -184.67142688 Eh

For completeness - the Gibbs free energy minus the electronic energy
G-E(el)                           ...     -0.01010742 Eh     -6.34 kcal/mol



--------------------------------
SUGGESTED CITATIONS FOR THIS RUN
--------------------------------

Below you find a list of papers that are relevant to this ORCA run
We neither can nor want to force you to cite these papers, but we appreciate if you do
You receive ORCA, which is the product of decades of hard work by many enthusiastic individuals, for free
The only thing we kindly ask in return is that you cite our papers,
We deeply appreciate it, if you show your appreciation for ORCA by not just citing the generic ORCA reference.

Please note that relegating all ORCA citations to the supporting information does *not* help us.
SI sections are not indexed - citations you put there will not count into any citation statistics
But we need these citations in order to attract the funding resources that allow us to do what we are doing

Therefore, if you are a happy ORCA user, please consider citing a few of the papers listed below in the main body of your paper

In addition to the list printed below, the program has created the file n2o_b3lyp_def2_TZVP.bibtex that contains the list in bibtex format
You can import this file easily into all common literature databanks and citation aid programs


List of essential papers. We consider these as the minimum necessary citations

  1. Neese,F.
     Software update: the ORCA program system, version 5.0
     WIRES Comput. Molec. Sci., 2022 12(1)e1606
     doi.org/10.1002/wcms.1606

List of papers to cite with high priority. The work reported in these papers was absolutely
necessary for this run to complete.
Our perspective: the developers of density functionals and basis sets usually get cited in chemistry papers
Good! But without the algorithms to do something with them, the functionals or basis sets would not do anything.
Hence, in our opinion, the algorithm design and method developments papers are equally worthy of getting cited

  1. Neese,F.
     An improvement of the resolution of the identity approximation for the formation of the Coulomb matrix
     J. Comp. Chem., 2003 24(14)1740-1747
     doi.org/10.1002/jcc.10318
  2. Neese,F.; Wennmohs,F.; Hansen,A.; Becker,U.
     Efficient, approximate and parallel Hartree-Fock and hybrid DFT calculations. A 'chain-of-spheres' algorithm for the Hartree-Fock exchange
     Chem. Phys., 2009 356(1-3)98-109
     doi.org/10.1016/j.chemphys.2008.10.036
  3. Bykov,D.; Petrenko,T.; Izsak,R.; Kossmann,S.; Becker,U.; Valeev,E.; Neese,F.
     Efficient implementation of the analytic second derivatives of Hartree-Fock and hybrid DFT energies: a detailed analysis of different approximations
     Molec. Phys., 2015 113 1961-1977
     doi.org/10.1080/00268976.2015.1025114
  4. Helmich-Paris,B.; de Souza,B.; Neese,F.; Izsák,R.
     An improved chain of spheres for exchange algorithm
     J. Chem. Phys., 2021 155 104109
     doi.org/doi: 10.1063/5.0058766.
  5. Neese,F.
     The SHARK Integral Generation and Digestion System
     J. Comp. Chem., 2022  1-16
     doi.org/10.1002/jcc.26942

List of suggested additional citations. These are papers that are important in the 'surrounding' of 
of this run, or papers that preceded the highly important papers. If you like your results we are grateful for a citation.

  1. Izsak,R.; Neese,F.
     An overlap fitted chain of spheres exchange method
     J. Chem. Phys., 2011 135 144105
     doi.org/10.1063/1.3646921
  2. Izsak,R.; Hansen,A.; Neese,F.
     The resolution of identity and chain of spheres approximations for the LPNO-CCSD singles Fock term
     Molec. Phys., 2012 110 2413-2417
     doi.org/10.1080/00268976.2012.687466
  3. Neese,F.
     The ORCA program system
     WIRES Comput. Molec. Sci., 2012 2(1)73-78
     doi.org/10.1002/wcms.81
  4. Izsak,R.; Neese,F.; Klopper,W.
     Robust fitting techniques in the chain of spheres approximation to the Fock exchange: The role of the complementary space
     J. Chem. Phys., 2013 139 
     doi.org/10.1063/1.4819264
  5. Neese,F.
     Software update: the ORCA program system, version 4.0
     WIRES Comput. Molec. Sci., 2018 8(1)1-6
     doi.org/10.1002/wcms.1327
  6. Neese,F.; Wennmohs,F.; Becker,U.; Riplinger,C.
     The ORCA quantum chemistry program package
     J. Chem. Phys., 2020 152 Art. No. L224108
     doi.org/10.1063/5.0004608

List of optional additional citations

  1. Neese,F.
     Approximate second-order SCF convergence for spin unrestricted wavefunctions
     Chem. Phys. Lett., 2000 325(1-3)93-98
     doi.org/10.1016/s0009-2614(00)00662-x

Timings for individual modules:

Sum of individual times          ...      174.679 sec (=   2.911 min)
Startup calculation              ...        1.216 sec (=   0.020 min)   0.7 %
SCF iterations                   ...       18.519 sec (=   0.309 min)  10.6 %
Property calculations            ...        0.044 sec (=   0.001 min)   0.0 %
SCF Gradient evaluation          ...       16.589 sec (=   0.276 min)   9.5 %
Geometry relaxation              ...        0.011 sec (=   0.000 min)   0.0 %
Numerical frequency calculation  ...      138.300 sec (=   2.305 min)  79.2 %
                             ****ORCA TERMINATED NORMALLY****
TOTAL RUN TIME: 0 days 0 hours 2 minutes 48 seconds 810 msec
