
                                 *****************
                                 * O   R   C   A *
                                 *****************

                                            #,                                       
                                            ###                                      
                                            ####                                     
                                            #####                                    
                                            ######                                   
                                           ########,                                 
                                     ,,################,,,,,                         
                               ,,#################################,,                 
                          ,,##########################################,,             
                       ,#########################################, ''#####,          
                    ,#############################################,,   '####,        
                  ,##################################################,,,,####,       
                ,###########''''           ''''###############################       
              ,#####''   ,,,,##########,,,,          '''####'''          '####       
            ,##' ,,,,###########################,,,                        '##       
           ' ,,###''''                  '''############,,,                           
         ,,##''                                '''############,,,,        ,,,,,,###''
      ,#''                                            '''#######################'''  
     '                                                          ''''####''''         
             ,#######,   #######,   ,#######,      ##                                
            ,#'     '#,  ##    ##  ,#'     '#,    #''#        ,####,   ,####,        
            ##       ##  ##   ,#'  ##            #'  '#       #'       #'  '#        
            ##       ##  #######   ##           ,######,      #####,   #    #        
            '#,     ,#'  ##    ##  '#,     ,#' ,#      #,     #,   #   #,  ,#        
             '#######'   ##     ##  '#######'  #'      '#     '####' # '####'        



                #########################################################
                #                        -***-                          #
                #          Department of theory and spectroscopy        #
                #                                                       #
                #                      Frank Neese                      #
                #                                                       #
                #     Directorship, Architecture, Infrastructure        #
                #                    SHARK, DRIVERS                     #
                #        Core code/Algorithms in most modules           #
                #                                                       #
                #        Max Planck Institute fuer Kohlenforschung      #
                #                Kaiser Wilhelm Platz 1                 #
                #                 D-45470 Muelheim/Ruhr                 #
                #                      Germany                          #
                #                                                       #
                #                  All rights reserved                  #
                #                        -***-                          #
                #########################################################


                         Program Version 6.0.1  -  RELEASE   -


 With contributions from (in alphabetic order):
[Max-Planck-Institut fuer Kohlenforschung]                               
  Daniel Aravena         : Magnetic Suceptibility                        
  Michael Atanasov       : Ab Initio Ligand Field Theory (pilot matlab implementation)
  Alexander A. Auer      : GIAO ZORA, VPT2 properties, NMR spectrum      
  Ute Becker             : All parallelization in ORCA, NUMFREQ, NUMCALC 
  Giovanni Bistoni       : ED, misc. LED, open-shell LED, HFLD           
  Martin Brehm           : Molecular dynamics                            
  Dmytro Bykov           : pre 5.0 version of the SCF Hessian            
  Marcos Casanova-Páez   : Triplet and SCS-CIS(D). UHF-(DLPNO)-IP/EA/STEOM-CCSD. UHF-CVS-IP/STEOM-CCSD   
  Vijay G. Chilkuri      : MRCI spin determinant printing, contributions to CSF-ICE 
  Pauline Colinet        : FMM embedding                                 
  Dipayan Datta          : RHF DLPNO-CCSD density                        
  Achintya Kumar Dutta   : EOM-CC, STEOM-CC                              
  Nicolas Foglia         : Exact transition moments, OPA infrastructure, MCD improvements    
  Dmitry Ganyushin       : Spin-Orbit,Spin-Spin,Magnetic field MRCI      
  Miquel Garcia-Rates    : C-PCM and meta-GGA Hessian, CCSD/C-PCM, Gaussian charge scheme 
  Tiago L. C. Gouveia    : GS-ROHF, GS-ROCIS                             
  Yang Guo               : DLPNO-NEVPT2, F12-NEVPT2, CIM, IAO-localization        
  Andreas Hansen         : Spin unrestricted coupled pair/coupled cluster methods 
  Ingolf Harden          : AUTO-CI MPn and infrastructure                
  Benjamin Helmich-Paris : MC-RPA, TRAH-(SCF,CASSCF), AVAS, COSX integrals, SCF dyn. polar. 
  Lee Huntington         : MR-EOM, pCC                                   
  Robert Izsak           : Overlap fitted RIJCOSX, COSX-SCS-MP3, EOM     
  Riya Kayal             : Wick's Theorem for AUTO-CI, AUTO-CI UHF-CCSDT 
  Emily Kempfer          : AUTO-CI, RHF CISDT and CCSDT                  
  Christian Kollmar      : KDIIS, OOCD, Brueckner-CCSD(T), CCSD density, CASPT2, CASPT2-K, improved NEVPT2 
  Axel Koslowski         : Symmetry handling                             
  Simone Kossmann        : meta-GGA functionals, TD-DFT gradient, OOMP2, (MP2 Hessian; deprecated post 5.0) 
  Lucas Lang             : DCDCAS                                        
  Marvin Lechner         : AUTO-CI (C++ implementation), FIC-MRCC        
  Spencer Leger          : CASSCF response                               
  Dagmar Lenk            : GEPOL surface, SMD, ORCA-2-JSON               
  Dimitrios Liakos       : Extrapolation schemes; Compound Job, initial MDCI parallelization 
  Dimitrios Manganas     : Further ROCIS development; embedding schemes. LFT, Crystal Embedding 
  Dimitrios Pantazis     : SARC Basis sets                               
  Anastasios Papadopoulos: AUTO-CI, single reference methods and gradients 
  Taras Petrenko         : pre 6.0 DFT Hessian and TD-DFT gradient, (ASA, deprecated), ECA, 1-Electron XAS/XES, NRVS 
  Peter Pinski           : DLPNO-MP2, DLPNO-MP2 Gradient                 
  Christoph Reimann      : Effective Core Potentials                     
  Marius Retegan         : Local ZFS, SOC                                
  Christoph Riplinger    : Optimizer, TS searches, QM/MM, DLPNO-CCSD(T), (RO)-DLPNO pert. Triples 
  Michael Roemelt        : Original ROCIS implementation                 
  Masaaki Saitow         : Open-shell DLPNO-CCSD energy and density      
  Barbara Sandhoefer     : DKH picture change effects                    
  Kantharuban Sivalingam : CASSCF convergence/infrastructure, NEVPT2 and variants, FIC-MRCI 
  Bernardo de Souza      : ESD, SOC TD-DFT                               
  Georgi L. Stoychev     : AutoAux, RI-MP2 NMR, DLPNO-MP2 response, X2C  
  Van Anh Tran           : RI-MP2 g-tensors                              
  Willem Van den Heuvel  : Paramagnetic NMR                              
  Zikuan Wang            : NOTCH, Electric field optimization            
  Frank Wennmohs         : Technical directorship and infrastructure     
  Hang Xu                : AUTO-CI-Response properties                   
                                                                         
[FACCTs GmbH]                                                            
  Markus Bursch, Miquel Garcia-Rates, Christoph Riplinger, Bernardo de Souza, Georgi L. Stoychev 
                                                                 
  APM, Basis sets (HGBS, AHGBS, def-TZVP (Ac-Lr), def2-XVPD (La-Lu)), CI-OPT, improved COSX, DLPNO-Multilevel,           
  DOCKER, DRACO, updates on ESD, GOAT, IRC, LR-CPCM, MBIS, meta-GGA TD-DFT gradient, ML-optimized integration grids, 
  MM, NACMEs, nearIR, NEB, NEB-TS, NL-DFT gradient (VV10), 2- and 3-layer-ONIOM, interface openCOSMO-RS, QMMM,   
  Crystal-QMMM, SF, symmetry and pop. for TD-DFT, r2SCAN hybrids, SOLVATOR                                   
                                                                         
[Other institutions]                                                     
  V. Asgeirsson          : NEB                                           
  Christoph Bannwarth    : sTDA-DFT, sTD-DFT, PBEh-3c, B97-3c, D3        
  Sebastian Ehlert       : rSCAN, r2SCAN, r2SCAN-3c, D4, dhf basis sets  
  Marvin Friede          : D4 for Fr, Ra, Ac-Lr                          
  Lars Goerigk           : TD-DFT with DH, B97 family of functionals     
  Stefan Grimme          : VdW corrections, initial TS optimization, DFT functionals, gCP, sTDA/sTD-DF 
  Waldemar Hujo          : DFT-NL                                        
  H. Jonsson             : NEB                                           
  Holger Kruse           : gCP                                           
  Marcel Mueller         : wB97X-3c, vDZP basis set                      
  Hagen Neugebauer       : wr2SCAN                                       
  Tobias Risthaus        : range-separated hybrid DFT                    
  Lukas Wittmann         : regularized MP2, r2SCAN double-hybrids, wr2SCAN        
                                                                         
We gratefully acknowledge several colleagues who have allowed us to      
interface, adapt or use parts of their codes:                            
  Ed Valeev, F. Pavosevic, A. Kumar             : LibInt (2-el integral package), F12 methods 
  Garnet Chan, S. Sharma, J. Yang, R. Olivares  : DMRG                   
  Ulf Ekstrom                                   : XCFun DFT Library      
  Mihaly Kallay                                 : mrcc  (arbitrary order and MRCC methods)
  Frank Weinhold                                : gennbo (NPA and NBO analysis)           
  Simon Mueller                                 : openCOSMO-RS                            
  Christopher J. Cramer and Donald G. Truhlar   : smd solvation model                     
  S Lehtola, MJT Oliveira, MAL Marques          : LibXC Library                           
  Liviu Ungur et al                             : ANISO software                          


 Your calculation uses the libint2 library for the computation of 2-el integrals
 For citations please refer to: http://libint.valeyev.net

 Your ORCA version has been built with support for libXC version: 6.2.2
 For citations please refer to: https://libxc.gitlab.io

 This ORCA versions uses:
   CBLAS   interface :  Fast vector & matrix operations
   LAPACKE interface :  Fast linear algebra routines
   SCALAPACK package :  Parallel linear algebra routines
   Shared memory     :  Shared parallel matrices
   BLAS/LAPACK       :  OpenBLAS 0.3.27  USE64BITINT DYNAMIC_ARCH NO_AFFINITY Haswell SINGLE_THREADED
        Core in use  :  Haswell
   Copyright (c) 2011-2014, The OpenBLAS Project


================================================================================

----- Orbital basis set information -----
Your calculation utilizes the basis: cc-pVTZ 
       H, B-Ne : Obtained from the ccRepo (grant-hill.group.shef.ac.uk/ccrepo) Feb. 2017
                 T. H. Dunning, Jr., J. Chem. Phys. 90, 1007 (1989)
            He : Obtained from the ccRepo (grant-hill.group.shef.ac.uk/ccrepo) Feb. 2017
                 D. E. Woon, T. H. Dunning, Jr., J. Chem. Phys. 100, 2975 (1994)
  Li-Be, Na-Mg : Obtained from the ccRepo (grant-hill.group.shef.ac.uk/ccrepo) Feb. 2017
                 B. P. Prascher, D. E. Woon, K. A. Peterson, T. H. Dunning, Jr., A. K. Wilson, Theor. Chem. Acc. 128, 69 (2011)
         Al-Ar : Obtained from the ccRepo (grant-hill.group.shef.ac.uk/ccrepo) Feb. 2017
                 D. E. Woon, T. H. Dunning, Jr., J. Chem. Phys. 98, 1358 (1993)
            Ca : Obtained from the Peterson Research Group Website (tyr0.chem.wsu.edu/~kipeters) Feb. 2017
                 J. Koput, K. A. Peterson, J. Phys. Chem. 106, 9595 (2002)
         Sc-Zn : Obtained from the ccRepo (grant-hill.group.shef.ac.uk/ccrepo) Feb. 2017
                 N. B. Balabanov, K. A. Peterson, J. Chem. Phys. 123, 064107 (2005)
                 N. B. Balabanov, K. A. Peterson, J. Chem. Phys. 125, 074110 (2006)
         Ga-Kr : Obtained from the ccRepo (grant-hill.group.shef.ac.uk/ccrepo) Feb. 2017
                 A. K. Wilson, D. E. Woon, K. A. Peterson, T. H. Dunning, Jr., J. Chem. Phys. 110, 7667 (1999)
             Y : Obtained from the ccRepo (grant-hill.group.shef.ac.uk/ccrepo) Feb. 2017
                 K. A. Peterson, D. Figgen, M. Dolg, H. Stoll, J. Chem. Phys. 126, 124101 (2007)
        Ag, Au : Obtained from the Peterson Research Group Website (tyr0.chem.wsu.edu/~kipeters) Feb. 2017
                 K. A. Peterson, C. Puzzarini, Theor. Chem. Acc. 114, 283 (2005)

================================================================================
                                        WARNINGS
                       Please study these warnings very carefully!
================================================================================


WARNING: The frozen-core approximation for MP2-gradient calculations is turned on by default.

WARNING: Geometry Optimization
  ===> : Switching off AutoStart
         For restart on a previous wavefunction, please use MOREAD

WARNING: Post HF methods need fully converged wavefunctions
  ===> : Setting SCFConvForced true
         You can overwrite this default with %scf ConvForced false 


================================================================================
                                       INPUT FILE
================================================================================
NAME = n2o_mp2_cc_pVTZ.inp
|  1> !MP2 cc-pVTZ opt NumFreq
|  2> * XYZ 0 1
|  3> N 0.000000 0.000000 -1.187431
|  4> N 0.000000 0.000000 -0.074171
|  5> O 0.000000 0.000000 1.103902
|  6> *
|  7> 
|  8>                          ****END OF INPUT****
================================================================================

                       *****************************
                       * Geometry Optimization Run *
                       *****************************

Geometry optimization settings:
Update method            Update   .... BFGS
Choice of coordinates    CoordSys .... (2022) Redundant Internals
Initial Hessian          InHess   .... Almloef's Model
Max. no of cycles        MaxIter  .... 50

Convergence Tolerances:
Energy Change            TolE     ....  5.0000e-06 Eh
Max. Gradient            TolMAXG  ....  3.0000e-04 Eh/bohr
RMS Gradient             TolRMSG  ....  1.0000e-04 Eh/bohr
Max. Displacement        TolMAXD  ....  4.0000e-03 bohr
RMS Displacement         TolRMSD  ....  2.0000e-03 bohr
Strict Convergence                .... False

------------------------------------------------------------------------------
                        ORCA OPTIMIZATION COORDINATE SETUP
------------------------------------------------------------------------------

The optimization will be done in redundant internal coordinates (2022)
Making redundant internal coordinates   ...  (2022 redundants) done
Evaluating the initial hessian          ...  (Almloef) done
Evaluating the coordinates              ...  done
Calculating the B-matrix                .... done
Calculating the G-matrix                .... done
Diagonalizing the G-matrix              .... done
The first mode is                       ....    0
The number of degrees of freedom        ....    4

    -----------------------------------------------------------------
                    Redundant Internal Coordinates


    -----------------------------------------------------------------
         Definition                    Initial Value    Approx d2E/dq
    -----------------------------------------------------------------
      1. B(N   1,N   0)                  1.1133         1.385267   
      2. B(O   2,N   1)                  1.1781         1.091763   
      3. L(N   0,N   1,O   2, 2)       180.0000         0.544038   
      4. L(N   0,N   1,O   2, 1)       180.0000         0.544038   
    -----------------------------------------------------------------

Number of atoms                         .... 3
Number of degrees of freedom            .... 4


         *************************************************************
         *                GEOMETRY OPTIMIZATION CYCLE   1            *
         *************************************************************
---------------------------------
CARTESIAN COORDINATES (ANGSTROEM)
---------------------------------
  N      0.000000    0.000000   -1.187431
  N      0.000000    0.000000   -0.074171
  O      0.000000    0.000000    1.103902

----------------------------
CARTESIAN COORDINATES (A.U.)
----------------------------
  NO LB      ZA    FRAG     MASS         X           Y           Z
   0 N     7.0000    0    14.007    0.000000    0.000000   -2.243919
   1 N     7.0000    0    14.007    0.000000    0.000000   -0.140163
   2 O     8.0000    0    15.999    0.000000    0.000000    2.086072

--------------------------------
INTERNAL COORDINATES (ANGSTROEM)
--------------------------------
 N      0   0   0     0.000000000000     0.00000000     0.00000000
 N      1   0   0     1.113260000000     0.00000000     0.00000000
 O      2   1   0     1.178073000000   179.99999879     0.00000000

---------------------------
INTERNAL COORDINATES (A.U.)
---------------------------
 N      0   0   0     0.000000000000     0.00000000     0.00000000
 N      1   0   0     2.103756515849     0.00000000     0.00000000
 O      2   1   0     2.226235335767   179.99999879     0.00000000

---------------------
BASIS SET INFORMATION
---------------------
There are 2 groups of distinct atoms

 Group   1 Type N   : 18s5p2d1f contracted to 4s3p2d1f pattern {8811/311/11/1}
 Group   2 Type O   : 18s5p2d1f contracted to 4s3p2d1f pattern {8811/311/11/1}

Atom   0N    basis set group =>   1
Atom   1N    basis set group =>   1
Atom   2O    basis set group =>   2
------------------------------------------------------------------------------
                             ORCA STARTUP CALCULATIONS
------------------------------------------------------------------------------
------------------------------------------------------------------------------
                   ___                                                        
                  /   \      - P O W E R E D   B Y -                         
                 /     \                                                     
                 |  |  |   _    _      __       _____    __    __             
                 |  |  |  | |  | |    /  \     |  _  \  |  |  /  |          
                  \  \/   | |  | |   /    \    | | | |  |  | /  /          
                 / \  \   | |__| |  /  /\  \   | |_| |  |  |/  /          
                |  |  |   |  __  | /  /__\  \  |    /   |      \           
                |  |  |   | |  | | |   __   |  |    \   |  |\   \          
                \     /   | |  | | |  |  |  |  | |\  \  |  | \   \       
                 \___/    |_|  |_| |__|  |__|  |_| \__\ |__|  \__/        
                                                                              
                      - O R C A' S   B I G   F R I E N D -                    
                                      &                                       
                       - I N T E G R A L  F E E D E R -                       
                                                                              
 v1 FN, 2020, v2 2021, v3 2022-2024                                           
------------------------------------------------------------------------------


----------------------
SHARK INTEGRAL PACKAGE
----------------------

Number of atoms                             ...      3
Number of basis functions                   ...    108
Number of shells                            ...     48
Maximum angular momentum                    ...      3
Integral batch strategy                     ... SHARK/LIBINT Hybrid
RI-J (if used) integral strategy            ... SPLIT-RIJ (Revised 2003 algorithm where possible)
Printlevel                                  ...      1
Contraction scheme used                     ... PARTIAL GENERAL contraction
Prescreening option                         ... SCHWARTZ
   Thresh                                   ... 2.500e-11
   Tcut                                     ... 2.500e-12
   Tpresel                                  ... 2.500e-12 
Coulomb Range Separation                    ... NOT USED
Exchange Range Separation                   ... NOT USED
Multipole approximations                    ... NOT USED
Finite Nucleus Model                        ... NOT USED
CABS basis                                  ... NOT available
Auxiliary Coulomb fitting basis             ... NOT available
Auxiliary J/K fitting basis                 ... NOT available
Auxiliary Correlation fitting basis         ... NOT available
Auxiliary 'external' fitting basis          ... NOT available

Checking pre-screening integrals            ... done (  0.0 sec) Dimension = 48
Save PGC pre-screening integrals            ... done (  0.0 sec) Dimension = 48
Calculate PGC overlap integrals             ... done (  0.0 sec) Dimension = 30
Calculating pre-screening integrals (ORCA)  ... done (  0.0 sec) Dimension = 30
Check shell pair data                       ... done (  0.0 sec)
Shell pair information
Shell pair cut-off parameter TPreSel        ...   2.5e-12
Total number of shell pairs                 ...      1176
Shell pairs after pre-screening             ...      1021
Total number of primitive shell pairs       ...      1494
Primitive shell pairs kept                  ...      1274
          la=0 lb=0:    332 shell pairs
          la=1 lb=0:    258 shell pairs
          la=1 lb=1:     45 shell pairs
          la=2 lb=0:    170 shell pairs
          la=2 lb=1:     54 shell pairs
          la=2 lb=2:     21 shell pairs
          la=3 lb=0:     90 shell pairs
          la=3 lb=1:     27 shell pairs
          la=3 lb=2:     18 shell pairs
          la=3 lb=3:      6 shell pairs

Calculating one electron integrals          ... done (  0.0 sec)
Calculating Nuclear repulsion               ... done (  0.0 sec) ENN=     61.379291869189 Eh

Diagonalization of the overlap matrix:
Smallest eigenvalue                        ... 6.463e-04
Time for diagonalization                   ...    0.001 sec
Threshold for overlap eigenvalues          ... 1.000e-07
Number of eigenvalues below threshold      ... 0
Time for construction of square roots      ...    0.000 sec
Total time needed                          ...    0.001 sec

-------------------
DFT GRID GENERATION
-------------------

General Integration Accuracy     IntAcc      ... 4.388
Radial Grid Type                 RadialGrid  ... OptM3 with GC (2021)
Angular Grid (max. ang.)         AngularGrid ... 4 (Lebedev-302)
Angular grid pruning method      GridPruning ... 4 (adaptive)
Weight generation scheme         WeightScheme... mBecke (2022)
Basis function cutoff            BFCut       ... 1.0000e-11
Integration weight cutoff        WCut        ... 1.0000e-14
Partially contracted basis set               ... off
Rotationally invariant grid construction     ... off
Angular grids for H and He will be reduced by one unit

Total number of grid points                  ...    18349
Total number of batches                      ...      288
Average number of points per batch           ...       63
Average number of grid points per atom       ...     6116

---------------------
SHARK GRID GENERATION
---------------------

General Integration Accuracy     IntAcc      ... 4.388
Radial Grid Type                 RadialGrid  ... OptM3 with GC (2021)
Angular Grid (max. ang.)         AngularGrid ... 4 (Lebedev-302)
Angular grid pruning method      GridPruning ... 4 (adaptive)
Weight generation scheme         WeightScheme... mBecke (2022)
Basis function cutoff            BFCut       ... 1.0000e-11
Integration weight cutoff        WCut        ... 1.0000e-14
Partially contracted basis set               ... off
Rotationally invariant grid construction     ... off
Angular grids for H and He will be reduced by one unit
Steep s-basis detected: some atoms will have their radial
                        grid points doubled.

Total number of grid points                  ...    37009
Total number of batches                      ...      579
Average number of points per batch           ...       63
Average number of grid points per atom       ...    12336
Initializing property integral containers    ... done (  0.0 sec)

SHARK setup successfully completed in   0.4 seconds

Maximum memory used throughout the entire STARTUP-calculation: 18.4 MB
-------------------------------------------------------------------------------
                                 ORCA GUESS
                   Start orbitals & Density for SCF / CASSCF
-------------------------------------------------------------------------------

------------
SCF SETTINGS
------------
Hamiltonian:
 Ab initio Hamiltonian  Method          .... Hartree-Fock(GTOs)


General Settings:
 Integral files         IntName         .... n2o_mp2_cc_pVTZ
 Hartree-Fock type      HFTyp           .... RHF
 Total Charge           Charge          ....    0
 Multiplicity           Mult            ....    1
 Number of Electrons    NEL             ....   22
 Basis Dimension        Dim             ....   90
 Nuclear Repulsion      ENuc            ....     61.3792918692 Eh

Convergence Acceleration:
 AO-DIIS                CNVDIIS         .... on
   Start iteration      DIISMaxIt       ....    12
   Startup error        DIISStart       ....  0.200000
   # of expansion vecs  DIISMaxEq       ....     5
   Bias factor          DIISBfac        ....   1.050
   Max. coefficient     DIISMaxC        ....  10.000
 MO-DIIS                CNVKDIIS        .... off
 Trust-Rad. Augm. Hess. CNVTRAH         .... auto
   Auto Start mean grad. ratio tolernc. ....  1.125000
   Auto Start start iteration           ....    50
   Auto Start num. interpolation iter.  ....    10
   Max. Number of Micro iterations      ....    24
   Max. Number of Macro iterations      .... Maxiter - #DIIS iter
   Number of Davidson start vectors     ....     2
   Converg. threshold    (grad. norm)   ....   1.000e-05
   Grad. Scal. Fac. for Micro threshold ....   0.100
   Minimum threshold for Micro iter.    ....   1.000e-02
   NR start threshold (gradient norm)   ....   1.000e-04
   Initial trust radius                 ....   0.400
   Minimum AH scaling param. (alpha)    ....   1.000
   Maximum AH scaling param. (alpha)    .... 1000.000
   Quad. conv. algorithm                .... NR
   White noise on init. David. guess    .... on
   Maximum white noise                  ....   0.010
   Pseudo random numbers                .... off
   Inactive MOs                         .... canonical
   Orbital update algorithm             .... Taylor
   Preconditioner                       .... Diag
   Full preconditioner red. dimension   ....   250
 SOSCF                  CNVSOSCF        .... on
   Start iteration      SOSCFMaxIt      ....   150
   Startup grad/error   SOSCFStart      ....  0.003300
   Hessian update       SOSCFHessUp     .... L-BFGS
 Level Shifting         CNVShift        .... on
   Level shift para.    LevelShift      ....    0.2500
   Turn off err/grad.   ShiftErr        ....    0.0010
 Zerner damping         CNVZerner       .... off
 Static damping         CNVDamp         .... on
   Fraction old density DampFac         ....    0.7000
   Max. Damping (<1)    DampMax         ....    0.9800
   Min. Damping (>=0)   DampMin         ....    0.0000
   Turn off err/grad.   DampErr         ....    0.1000

SCF Procedure:
 Maximum # iterations   MaxIter         ....   125
 SCF integral mode      SCFMode         .... Direct
   Integral package                     .... SHARK and LIBINT hybrid scheme
 Reset frequency        DirectResetFreq ....    20
 Integral Threshold     Thresh          ....  2.500e-11 Eh
 Primitive CutOff       TCut            ....  2.500e-12 Eh

Convergence Tolerance:
 Convergence Check Mode ConvCheckMode   .... Total+1el-Energy
 Convergence forced     ConvForced      .... 1
 Energy Change          TolE            ....  1.000e-08 Eh
 1-El. energy change                    ....  1.000e-05 Eh
 Orbital Gradient       TolG            ....  1.000e-05
 Orbital Rotation angle TolX            ....  1.000e-05
 DIIS Error             TolErr          ....  5.000e-07

------------------------------
INITIAL GUESS: MODEL POTENTIAL
------------------------------
Loading Hartree-Fock densities                     ... done
Calculating cut-offs                               ... done
Initializing the effective Hamiltonian             ... done
Setting up the integral package (SHARK)            ... done
Starting the Coulomb interaction                   ... done (   0.0 sec)
Making the grid                                    ... done (   0.0 sec)
Mapping shells                                     ... done
Starting the XC term evaluation                    ... done (   0.0 sec)
Transforming the Hamiltonian                       ... done (   0.0 sec)
Diagonalizing the Hamiltonian                      ... done (   0.0 sec)
Back transforming the eigenvectors                 ... done (   0.0 sec)
Now organizing SCF variables                       ... done
                      ------------------
                      INITIAL GUESS DONE (   0.0 sec)
                      ------------------
             **** ENERGY FILE WAS UPDATED (n2o_mp2_cc_pVTZ.en.tmp) ****
Finished Guess after   0.1 sec
Maximum memory used throughout the entire GUESS-calculation: 7.9 MB

-------------------------------------------------------------------------------------------
                                      ORCA LEAN-SCF
                              memory conserving SCF solver
-------------------------------------------------------------------------------------------

----------------------------------------D-I-I-S--------------------------------------------
Iteration    Energy (Eh)           Delta-E    RMSDP     MaxDP     DIISErr   Damp  Time(sec)
-------------------------------------------------------------------------------------------
               ***  Starting incremental Fock matrix formation  ***
    1    -183.6518760644581789     0.00e+00  1.58e-03  2.33e-02  2.09e-01  0.700   0.4
    2    -183.6869912596393419    -3.51e-02  1.14e-03  1.65e-02  1.47e-01  0.700   0.4
                               ***Turning on AO-DIIS***
    3    -183.7074140954742916    -2.04e-02  6.78e-04  1.21e-02  1.08e-01  0.700   0.4
    4    -183.7207649763653308    -1.34e-02  4.96e-04  8.65e-03  7.71e-02  0.700   0.4
    5    -183.7300857508110425    -9.32e-03  1.25e-03  2.07e-02  5.43e-02  0.000   0.4
    6    -183.7525846688178035    -2.25e-02  1.55e-04  2.62e-03  8.14e-03  0.000   0.4
                              *** Initializing SOSCF ***
---------------------------------------S-O-S-C-F--------------------------------------
Iteration    Energy (Eh)           Delta-E    RMSDP     MaxDP     MaxGrad    Time(sec)
--------------------------------------------------------------------------------------
    7    -183.7526945115545800    -1.10e-04  7.28e-05  8.64e-04  2.46e-03     0.4
               *** Restarting incremental Fock matrix formation ***
    8    -183.7527188588461513    -2.43e-05  5.24e-05  6.89e-04  7.94e-04     0.4
    9    -183.7527266082029200    -7.75e-06  5.45e-05  7.61e-04  3.56e-04     0.4
   10    -183.7527293511521975    -2.74e-06  1.29e-05  1.54e-04  1.52e-04     0.4
   11    -183.7527296260660137    -2.75e-07  3.67e-06  5.10e-05  4.69e-05     0.4
   12    -183.7527296431794070    -1.71e-08  1.33e-06  1.73e-05  2.23e-05     0.4
   13    -183.7527296502602780    -7.08e-09  2.92e-07  7.54e-06  2.35e-06     0.3
                 **** Energy Check signals convergence ****

               *****************************************************
               *                     SUCCESS                       *
               *           SCF CONVERGED AFTER  13 CYCLES          *
               *****************************************************

             **** ENERGY FILE WAS UPDATED (n2o_mp2_cc_pVTZ.en.tmp) ****

----------------
TOTAL SCF ENERGY
----------------

Total Energy       :       -183.75272965026028 Eh           -5000.16598 eV

Components:
Nuclear Repulsion  :         61.37929186918852 Eh            1670.21544 eV
Electronic Energy  :       -245.13202151944881 Eh           -6670.38142 eV
One Electron Energy:       -371.71655333975349 Eh          -10114.92165 eV
Two Electron Energy:        126.58453182030468 Eh            3444.54023 eV

Virial components:
Potential Energy   :       -367.22107980677799 Eh           -9992.59360 eV
Kinetic Energy     :        183.46835015651772 Eh            4992.42762 eV
Virial Ratio       :          2.00155001935484

---------------
SCF CONVERGENCE
---------------

  Last Energy change         ...    7.0809e-09  Tolerance :   1.0000e-08
  Last MAX-Density change    ...    7.5382e-06  Tolerance :   1.0000e-07
  Last RMS-Density change    ...    2.9165e-07  Tolerance :   5.0000e-09
  Last DIIS Error            ...    2.4562e-03  Tolerance :   5.0000e-07
  Last Orbital Gradient      ...    2.3450e-06  Tolerance :   1.0000e-05
  Last Orbital Rotation      ...    2.1619e-06  Tolerance :   1.0000e-05


----------------
ORBITAL ENERGIES
----------------

  NO   OCC          E(Eh)            E(eV) 
   0   2.0000     -20.651287      -561.9501 
   1   2.0000     -15.840593      -431.0445 
   2   2.0000     -15.691032      -426.9747 
   3   2.0000      -1.618707       -44.0473 
   4   2.0000      -1.431094       -38.9420 
   5   2.0000      -0.829365       -22.5682 
   6   2.0000      -0.766962       -20.8701 
   7   2.0000      -0.766962       -20.8701 
   8   2.0000      -0.696264       -18.9463 
   9   2.0000      -0.490740       -13.3537 
  10   2.0000      -0.490740       -13.3537 
  11   0.0000       0.162871         4.4319 
  12   0.0000       0.162871         4.4319 
  13   0.0000       0.292820         7.9680 
  14   0.0000       0.424469        11.5504 
  15   0.0000       0.548770        14.9328 
  16   0.0000       0.548770        14.9328 
  17   0.0000       0.608499        16.5581 
  18   0.0000       0.663782        18.0624 
  19   0.0000       0.687189        18.6994 
  20   0.0000       0.687189        18.6994 
  21   0.0000       0.738097        20.0846 
*Only the first 10 virtual orbitals were printed.

                    ********************************
                    * MULLIKEN POPULATION ANALYSIS *
                    ********************************

-----------------------
MULLIKEN ATOMIC CHARGES
-----------------------
   0 N :   -0.145348
   1 N :    0.436600
   2 O :   -0.291252
Sum of atomic charges:   -0.0000000

--------------------------------
MULLIKEN REDUCED ORBITAL CHARGES
--------------------------------
  0 N s       :     3.800156  s :     3.800156
      pz      :     1.088470  p :     3.253445
      px      :     1.082487
      py      :     1.082487
      dz2     :     0.024005  d :     0.085022
      dxz     :     0.030508
      dyz     :     0.030508
      dx2y2   :     0.000000
      dxy     :     0.000000
      f0      :     0.002186  f :     0.006726
      f+1     :     0.002270
      f-1     :     0.002270
      f+2     :     0.000000
      f-2     :     0.000000
      f+3     :     0.000000
      f-3     :     0.000000

  1 N s       :     3.193747  s :     3.193747
      pz      :     0.966320  p :     3.127431
      px      :     1.080556
      py      :     1.080556
      dz2     :     0.032711  d :     0.225322
      dxz     :     0.096306
      dyz     :     0.096306
      dx2y2   :     0.000000
      dxy     :     0.000000
      f0      :     0.005046  f :     0.016900
      f+1     :     0.005927
      f-1     :     0.005927
      f+2     :     0.000000
      f-2     :     0.000000
      f+3     :     0.000000
      f-3     :     0.000000

  2 O s       :     3.790539  s :     3.790539
      pz      :     1.070129  p :     4.450371
      px      :     1.690121
      py      :     1.690121
      dz2     :     0.024444  d :     0.046552
      dxz     :     0.011054
      dyz     :     0.011054
      dx2y2   :     0.000000
      dxy     :     0.000000
      f0      :     0.002247  f :     0.003790
      f+1     :     0.000771
      f-1     :     0.000771
      f+2     :     0.000000
      f-2     :     0.000000
      f+3     :     0.000000
      f-3     :     0.000000



                     *******************************
                     * LOEWDIN POPULATION ANALYSIS *
                     *******************************

----------------------
LOEWDIN ATOMIC CHARGES
----------------------
   0 N :    0.008692
   1 N :    0.021301
   2 O :   -0.029994

-------------------------------
LOEWDIN REDUCED ORBITAL CHARGES
-------------------------------
  0 N s       :     3.362253  s :     3.362253
      pz      :     1.336175  p :     3.417295
      px      :     1.040560
      py      :     1.040560
      dz2     :     0.079535  d :     0.182990
      dxz     :     0.051727
      dyz     :     0.051727
      dx2y2   :     0.000000
      dxy     :     0.000000
      f0      :     0.010995  f :     0.028770
      f+1     :     0.008888
      f-1     :     0.008888
      f+2     :     0.000000
      f-2     :     0.000000
      f+3     :     0.000000
      f-3     :     0.000000

  1 N s       :     2.949491  s :     2.949491
      pz      :     1.284111  p :     3.299578
      px      :     1.007733
      py      :     1.007733
      dz2     :     0.168238  d :     0.683260
      dxz     :     0.257511
      dyz     :     0.257511
      dx2y2   :     0.000000
      dxy     :     0.000000
      f0      :     0.020903  f :     0.046370
      f+1     :     0.012734
      f-1     :     0.012734
      f+2     :     0.000000
      f-2     :     0.000000
      f+3     :     0.000000
      f-3     :     0.000000

  2 O s       :     3.475483  s :     3.475483
      pz      :     1.245174  p :     4.429094
      px      :     1.591960
      py      :     1.591960
      dz2     :     0.061476  d :     0.113186
      dxz     :     0.025855
      dyz     :     0.025855
      dx2y2   :     0.000000
      dxy     :     0.000000
      f0      :     0.006167  f :     0.012231
      f+1     :     0.003032
      f-1     :     0.003032
      f+2     :     0.000000
      f-2     :     0.000000
      f+3     :     0.000000
      f-3     :     0.000000



                      *****************************
                      * MAYER POPULATION ANALYSIS *
                      *****************************

  NA   - Mulliken gross atomic population
  ZA   - Total nuclear charge
  QA   - Mulliken gross atomic charge
  VA   - Mayer's total valence
  BVA  - Mayer's bonded valence
  FA   - Mayer's free valence

  ATOM       NA         ZA         QA         VA         BVA        FA
  0 N      7.1453     7.0000    -0.1453     2.8227     2.8227     0.0000
  1 N      6.5634     7.0000     0.4366     4.2590     4.2590    -0.0000
  2 O      8.2913     8.0000    -0.2913     2.0065     2.0065    -0.0000

  Mayer bond orders larger than 0.100000
B(  0-N ,  1-N ) :   2.5376 B(  0-N ,  2-O ) :   0.2851 B(  1-N ,  2-O ) :   1.7214 


-------
TIMINGS
-------

Total SCF time: 0 days 0 hours 0 min 5 sec 

Total time                  ....       5.187 sec
Sum of individual times     ....       5.175 sec  ( 99.8%)

SCF preparation             ....       0.026 sec  (  0.5%)
Fock matrix formation       ....       5.109 sec  ( 98.5%)
  Startup                   ....       0.001 sec  (  0.0% of F)
  Coulomb+Exchange Fock     ....       5.104 sec  ( 99.9% of F)
Diagonalization             ....       0.000 sec  (  0.0%)
Density matrix formation    ....       0.006 sec  (  0.1%)
Total Energy calculation    ....       0.001 sec  (  0.0%)
Population analysis         ....       0.002 sec  (  0.0%)
Orbital Transformation      ....       0.004 sec  (  0.1%)
Orbital Orthonormalization  ....       0.000 sec  (  0.0%)
DIIS solution               ....       0.012 sec  (  0.2%)
SOSCF solution              ....       0.015 sec  (  0.3%)
Finished LeanSCF after   5.2 sec

Maximum memory used throughout the entire LEANSCF-calculation: 12.1 MB

------------------------------------------------------------------------------
                                ORCA  MP2 
------------------------------------------------------------------------------

NOTE: Switching SHARK to Segmented Contraction for MP2
      If that is not desired please turn off the PGCFlag in the input (%shark PGCFlag 0 end)
      Number of basis functions in BAS before restore: 108
      Number of basis functions in BAS after restore : 90
Freezing NCore=6 chemical core electrons
MP2 will be done in the AO integral direct mode
The Q1-step will be done using symmetric double matrices
Dimension of the basis                    ...   90
Memory devoted for MP2                    ... 4096 MB   
Memory needed for all in one shot         ...   23 MB
Number of MOs that can be treated together... 1455      
MP2 density construction                  ... relaxed
The MP2 gradient is requested => amplitudes will be stored on disk
Total number of MOs              ...    8
Number of MOs treated per batch  ...    8 
Number of batches necessary      ...    1 
OPERATORS   0/  0 PASS   0
-----------------------------------------------
 MP2 CORRELATION ENERGY   :     -0.637724112 Eh
-----------------------------------------------


---------------------
MP2 DENSITY FORMATION
---------------------

Completing the external part of the density      ... done
Storing the unrelaxed density                    ... done

Calculating G(D)                                 ... done
Completing the Lagrangian                        ... done
Solving the Z-vector equations                   ... 
-------------------
SHARK CP-SCF DRIVER
-------------------

Dimension of the orbital basis          ...     90
Dimension of the CPSCF-problem          ...    869
Number of operators                     ...      1
Max. number of iterations               ...    128
Convergence Tolerance                   ... 1.0e-04
Number of perturbations                 ...      1
Perturbation type                       ... REAL

----------------------------
POPLE LINEAR EQUATION SOLVER
----------------------------

  ITERATION   0:   ||err||_max =   9.2932e-02 (   0.5 sec)
  ITERATION   1:   ||err||_max =   3.9166e-02 (   0.5 sec)
  ITERATION   2:   ||err||_max =   1.4330e-02 (   0.5 sec)
  ITERATION   3:   ||err||_max =   7.0477e-03 (   0.5 sec)
  ITERATION   4:   ||err||_max =   1.3934e-03 (   0.5 sec)
  ITERATION   5:   ||err||_max =   2.4574e-04 (   0.5 sec)
  ITERATION   6:   ||err||_max =   3.7482e-05 (   0.5 sec)
                                                 ... done
Finalizing the relaxed density                   ... done
Transforming P to the AO basis                   ... done
Storing the relaxed density                      ... done

------------------------------------
ENERGY WEIGHTED DENSITY FINALIZATION
------------------------------------

Gathering the parts of the W-matrix              ...                                                      done
Forming the Z-density                            ... done
Transforming Z to the AO basis                   ... done
Calculating G(Z)                                 ... done
Finalizing the W-matrix                          ...                                                      done
Transforming W to the AO basis and storing       ... done

                *********************************************
                * UNRELAXED MP2 DENSITY POPULATION ANALYSIS *
                *********************************************

------------------------------------------------------------------------------
                           ORCA POPULATION ANALYSIS
------------------------------------------------------------------------------
Input electron density              ... n2o_mp2_cc_pVTZ.pmp2ur
BaseName (.gbw .S,...)              ... n2o_mp2_cc_pVTZ

                    ********************************
                    * MULLIKEN POPULATION ANALYSIS *
                    ********************************

-----------------------
MULLIKEN ATOMIC CHARGES
-----------------------
   0 N :   -0.143526
   1 N :    0.409873
   2 O :   -0.266347
Sum of atomic charges:   -0.0000000

--------------------------------
MULLIKEN REDUCED ORBITAL CHARGES
--------------------------------
  0 N s       :     3.788866  s :     3.788866
      pz      :     1.080645  p :     3.241542
      px      :     1.080449
      py      :     1.080449
      dz2     :     0.027280  d :     0.103750
      dxz     :     0.033471
      dyz     :     0.033471
      dx2y2   :     0.004764
      dxy     :     0.004764
      f0      :     0.002677  f :     0.009368
      f+1     :     0.002633
      f-1     :     0.002633
      f+2     :     0.000431
      f-2     :     0.000431
      f+3     :     0.000281
      f-3     :     0.000281
  1 N s       :     3.194465  s :     3.194465
      pz      :     0.957443  p :     3.135671
      px      :     1.089114
      py      :     1.089114
      dz2     :     0.036814  d :     0.240139
      dxz     :     0.097419
      dyz     :     0.097419
      dx2y2   :     0.004244
      dxy     :     0.004244
      f0      :     0.005487  f :     0.019853
      f+1     :     0.006345
      f-1     :     0.006345
      f+2     :     0.000592
      f-2     :     0.000592
      f+3     :     0.000246
      f-3     :     0.000246
  2 O s       :     3.785250  s :     3.785250
      pz      :     1.067425  p :     4.403302
      px      :     1.667938
      py      :     1.667938
      dz2     :     0.027716  d :     0.071330
      dxz     :     0.016353
      dyz     :     0.016353
      dx2y2   :     0.005454
      dxy     :     0.005454
      f0      :     0.002605  f :     0.006465
      f+1     :     0.001202
      f-1     :     0.001202
      f+2     :     0.000388
      f-2     :     0.000388
      f+3     :     0.000340
      f-3     :     0.000340


                     *******************************
                     * LOEWDIN POPULATION ANALYSIS *
                     *******************************

----------------------
LOEWDIN ATOMIC CHARGES
----------------------
   0 N :    0.003701
   1 N :    0.006390
   2 O :   -0.010090

-------------------------------
LOEWDIN REDUCED ORBITAL CHARGES
-------------------------------
  0 N s       :     3.354011  s :     3.354011
      pz      :     1.323896  p :     3.396896
      px      :     1.036500
      py      :     1.036500
      dz2     :     0.085539  d :     0.211321
      dxz     :     0.058181
      dyz     :     0.058181
      dx2y2   :     0.004710
      dxy     :     0.004710
      f0      :     0.012153  f :     0.034072
      f+1     :     0.010224
      f-1     :     0.010224
      f+2     :     0.000454
      f-2     :     0.000454
      f+3     :     0.000281
      f-3     :     0.000281
  1 N s       :     2.947842  s :     2.947842
      pz      :     1.273164  p :     3.299640
      px      :     1.013238
      py      :     1.013238
      dz2     :     0.176345  d :     0.691169
      dxz     :     0.253174
      dyz     :     0.253174
      dx2y2   :     0.004237
      dxy     :     0.004237
      f0      :     0.022337  f :     0.054959
      f+1     :     0.015387
      f-1     :     0.015387
      f+2     :     0.000678
      f-2     :     0.000678
      f+3     :     0.000246
      f-3     :     0.000246
  2 O s       :     3.470077  s :     3.470077
      pz      :     1.237275  p :     4.382144
      px      :     1.572434
      py      :     1.572434
      dz2     :     0.067132  d :     0.141967
      dxz     :     0.032016
      dyz     :     0.032016
      dx2y2   :     0.005401
      dxy     :     0.005401
      f0      :     0.006900  f :     0.015903
      f+1     :     0.003770
      f-1     :     0.003770
      f+2     :     0.000392
      f-2     :     0.000392
      f+3     :     0.000340
      f-3     :     0.000340


                      *****************************
                      * MAYER POPULATION ANALYSIS *
                      *****************************

  NA   - Mulliken gross atomic population
  ZA   - Total nuclear charge
  QA   - Mulliken gross atomic charge
  VA   - Mayer's total valence
  BVA  - Mayer's bonded valence
  FA   - Mayer's free valence

  ATOM       NA         ZA         QA         VA         BVA        FA
  0 N      7.1435     7.0000    -0.1435     3.0062     2.4871     0.5191
  1 N      6.5901     7.0000     0.4099     4.3424     3.8702     0.4722
  2 O      8.2663     8.0000    -0.2663     2.3145     1.8274     0.4871

  Mayer bond orders larger than 0.100000
B(  0-N ,  1-N ) :   2.2649 B(  0-N ,  2-O ) :   0.2222 B(  1-N ,  2-O ) :   1.6053 



                *******************************************
                * RELAXED MP2 DENSITY POPULATION ANALYSIS *
                *******************************************

------------------------------------------------------------------------------
                           ORCA POPULATION ANALYSIS
------------------------------------------------------------------------------
Input electron density              ... n2o_mp2_cc_pVTZ.pmp2re
BaseName (.gbw .S,...)              ... n2o_mp2_cc_pVTZ

                    ********************************
                    * MULLIKEN POPULATION ANALYSIS *
                    ********************************

-----------------------
MULLIKEN ATOMIC CHARGES
-----------------------
   0 N :   -0.142742
   1 N :    0.297531
   2 O :   -0.154789
Sum of atomic charges:   -0.0000000

--------------------------------
MULLIKEN REDUCED ORBITAL CHARGES
--------------------------------
  0 N s       :     3.786069  s :     3.786069
      pz      :     1.070184  p :     3.257568
      px      :     1.093692
      py      :     1.093692
      dz2     :     0.026063  d :     0.090506
      dxz     :     0.027457
      dyz     :     0.027457
      dx2y2   :     0.004764
      dxy     :     0.004764
      f0      :     0.002538  f :     0.008599
      f+1     :     0.002318
      f-1     :     0.002318
      f+2     :     0.000431
      f-2     :     0.000431
      f+3     :     0.000281
      f-3     :     0.000281
  1 N s       :     3.195793  s :     3.195793
      pz      :     0.933495  p :     3.277799
      px      :     1.172152
      py      :     1.172152
      dz2     :     0.037826  d :     0.210305
      dxz     :     0.081996
      dyz     :     0.081996
      dx2y2   :     0.004244
      dxy     :     0.004244
      f0      :     0.005645  f :     0.018572
      f+1     :     0.005625
      f-1     :     0.005625
      f+2     :     0.000592
      f-2     :     0.000592
      f+3     :     0.000246
      f-3     :     0.000246
  2 O s       :     3.758802  s :     3.758802
      pz      :     1.133743  p :     4.320415
      px      :     1.593336
      py      :     1.593336
      dz2     :     0.024167  d :     0.069254
      dxz     :     0.017090
      dyz     :     0.017090
      dx2y2   :     0.005454
      dxy     :     0.005454
      f0      :     0.002346  f :     0.006318
      f+1     :     0.001258
      f-1     :     0.001258
      f+2     :     0.000388
      f-2     :     0.000388
      f+3     :     0.000340
      f-3     :     0.000340


                     *******************************
                     * LOEWDIN POPULATION ANALYSIS *
                     *******************************

----------------------
LOEWDIN ATOMIC CHARGES
----------------------
   0 N :   -0.010314
   1 N :   -0.056307
   2 O :    0.066621

-------------------------------
LOEWDIN REDUCED ORBITAL CHARGES
-------------------------------
  0 N s       :     3.358075  s :     3.358075
      pz      :     1.308581  p :     3.406231
      px      :     1.048825
      py      :     1.048825
      dz2     :     0.085695  d :     0.210626
      dxz     :     0.057756
      dyz     :     0.057756
      dx2y2   :     0.004710
      dxy     :     0.004710
      f0      :     0.012197  f :     0.035382
      f+1     :     0.010857
      f-1     :     0.010857
      f+2     :     0.000454
      f-2     :     0.000454
      f+3     :     0.000281
      f-3     :     0.000281
  1 N s       :     2.944188  s :     2.944188
      pz      :     1.247889  p :     3.384454
      px      :     1.068283
      py      :     1.068283
      dz2     :     0.181460  d :     0.677445
      dxz     :     0.243755
      dyz     :     0.243755
      dx2y2   :     0.004237
      dxy     :     0.004237
      f0      :     0.024184  f :     0.050219
      f+1     :     0.012094
      f-1     :     0.012094
      f+2     :     0.000678
      f-2     :     0.000678
      f+3     :     0.000246
      f-3     :     0.000246
  2 O s       :     3.470916  s :     3.470916
      pz      :     1.277279  p :     4.305584
      px      :     1.514152
      py      :     1.514152
      dz2     :     0.060045  d :     0.140924
      dxz     :     0.035039
      dyz     :     0.035039
      dx2y2   :     0.005401
      dxy     :     0.005401
      f0      :     0.006162  f :     0.015955
      f+1     :     0.004165
      f-1     :     0.004165
      f+2     :     0.000392
      f-2     :     0.000392
      f+3     :     0.000340
      f-3     :     0.000340


                      *****************************
                      * MAYER POPULATION ANALYSIS *
                      *****************************

  NA   - Mulliken gross atomic population
  ZA   - Total nuclear charge
  QA   - Mulliken gross atomic charge
  VA   - Mayer's total valence
  BVA  - Mayer's bonded valence
  FA   - Mayer's free valence

  ATOM       NA         ZA         QA         VA         BVA        FA
  0 N      7.1427     7.0000    -0.1427     3.0250     2.5237     0.5012
  1 N      6.7025     7.0000     0.2975     4.3584     3.9172     0.4412
  2 O      8.1548     8.0000    -0.1548     2.5668     2.1036     0.4631

  Mayer bond orders larger than 0.100000
B(  0-N ,  1-N ) :   2.1687 B(  0-N ,  2-O ) :   0.3551 B(  1-N ,  2-O ) :   1.7486 



----------------------------------
MP2 DERIVATIVE INTEGRAL GENERATION
----------------------------------

Input SCF Electron Density              ... n2o_mp2_cc_pVTZ.scfp
Input Correlated Electron Density       ... n2o_mp2_cc_pVTZ.pmp2re
Input Energy Weighted Density           ... n2o_mp2_cc_pVTZ.wmp2.tmp
Input Wavefunction Amplitudes           ... n2o_mp2_cc_pVTZ.mp2tsaa.tmp

Nuclear repulsion gradient              ... done (  0.0 sec)
HCore & Overlap gradient  (SHARK)       ... done (  0.0 sec)
Analytic two-electron gradient terms    ... 
  Batch handling in the gradient evaluation:
  General contraction                   ... not used
  Memory available                      ... 4089.2 MB
  Memory per occupied orbital in Q2     ...    0.5 MB
  Memory per occupied orbital in Q3     ...    0.0 MB
  Total memory requirement per |i>      ...    0.5 MB
  Number of orbitals treated per batch  ...      8
  Number of batches to be done          ...      1
done (  3.4 sec)

---------------------------------------
MP2 TOTAL ENERGY:     -184.390453763 Eh
---------------------------------------

The final MP2 gradient
  0:   0.00000000  -0.00000000   0.08625842
  1:  -0.00000000   0.00000000  -0.08073370
  2:   0.00000000  -0.00000000  -0.00552472

-----------------------------------
NORM OF THE MP2 GRADIENT:  0.118275
-----------------------------------

Maximum memory used throughout the entire MP2-calculation: 43.1 MB

-------------------------   --------------------
FINAL SINGLE POINT ENERGY      -184.390453762507
-------------------------   --------------------

------------------------------------------------------------------------------
                         ORCA GEOMETRY RELAXATION STEP
------------------------------------------------------------------------------

Reading the OPT-File                    .... done
Getting information on internals        .... done
Copying old internal coords+grads       .... done
Making the new internal coordinates     .... (2022 redundants) done
Validating the new internal coordinates .... (2022 redundants) done
Calculating the B-matrix                .... done
Calculating the G,G- and P matrices     .... done
Transforming gradient to internals      .... done
Projecting the internal gradient        .... done
Number of atoms                         ....   3
Number of internal coordinates          ....   4
Current Energy                          ....  -184.390453763 Eh
Current gradient norm                   ....     0.118274965 Eh/bohr
Maximum allowed component of the step   ....  0.300
Current trust radius                    ....  0.300
Evaluating the initial hessian          ....  (Almloef) done
Projecting the Hessian                  .... done
Forming the augmented Hessian           .... done
Diagonalizing the augmented Hessian     .... done
Last element of RFO vector              ....  0.998069214
Lowest eigenvalues of augmented Hessian:
 -0.005378226  0.544038227  0.544038227  1.091790358
Length of the computed step             ....  0.062231702
The final length of the internal step   ....  0.062231702
Converting the step to Cartesian space:
 Initial RMS(Int)=    0.0311158511
Transforming coordinates:
 Iter   0:  RMS(Cart)=    0.0176070877 RMS(Int)=    0.0311158511
done
Storing new coordinates                 .... done

                                .--------------------.
          ----------------------|Geometry convergence|-------------------------
          Item                value                   Tolerance       Converged
          ---------------------------------------------------------------------
          RMS gradient        0.0432175818            0.0001000000      NO
          MAX gradient        0.0862584196            0.0003000000      NO
          RMS step            0.0311158511            0.0020000000      NO
          MAX step            0.0620276380            0.0040000000      NO
          ........................................................
          Max(Bonds)      0.0328      Max(Angles)    0.00
          Max(Dihed)        0.00      Max(Improp)    0.00
          ---------------------------------------------------------------------

The optimization has not yet converged - more geometry cycles are needed


    ---------------------------------------------------------------------------
                         Redundant Internal Coordinates
                            (Angstroem and degrees)

        Definition                    Value    dE/dq     Step     New-Value
    ----------------------------------------------------------------------------
     1. B(N   1,N   0)                1.1133 -0.086258  0.0328    1.1461   
     2. B(O   2,N   1)                1.1781 -0.005525  0.0027    1.1807   
     3. L(N   0,N   1,O   2, 2)       180.00 -0.000000   -0.00    180.00   
     4. L(N   0,N   1,O   2, 1)       180.00 -0.000000    0.00    180.00   
    ----------------------------------------------------------------------------

Geometry step timings:
Preparation and reading OPT file:      0.000 s (14.571 %)
Internal coordinates            :      0.000 s ( 5.190 %)
B/P matrices and projection     :      0.000 s (16.766 %)
Hessian update/contruction      :      0.000 s (15.170 %)
Making the step                 :      0.000 s (10.379 %)
Converting the step to Cartesian:      0.000 s ( 5.589 %)
Storing new data                :      0.000 s ( 4.391 %)
Checking convergence            :      0.000 s ( 0.200 %)
Final printing                  :      0.000 s (27.146 %)
Total time                      :      0.001 s

Time for energy+gradient        :     14.932 s
Time for complete geometry iter :     14.948 s

         *************************************************************
         *                GEOMETRY OPTIMIZATION CYCLE   2            *
         *************************************************************
---------------------------------
CARTESIAN COORDINATES (ANGSTROEM)
---------------------------------
  N      0.000000    0.000000   -1.210202
  N     -0.000000   -0.000000   -0.064118
  O      0.000000    0.000000    1.116620

----------------------------
CARTESIAN COORDINATES (A.U.)
----------------------------
  NO LB      ZA    FRAG     MASS         X           Y           Z
   0 N     7.0000    0    14.007    0.000000    0.000000   -2.286950
   1 N     7.0000    0    14.007   -0.000000   -0.000000   -0.121166
   2 O     8.0000    0    15.999    0.000000    0.000000    2.110105

--------------------------------
INTERNAL COORDINATES (ANGSTROEM)
--------------------------------
 N      0   0   0     0.000000000000     0.00000000     0.00000000
 N      1   0   0     1.146083612288     0.00000000     0.00000000
 O      2   1   0     1.180737704642   180.00000000     0.00000000

---------------------------
INTERNAL COORDINATES (A.U.)
---------------------------
 N      0   0   0     0.000000000000     0.00000000     0.00000000
 N      1   0   0     2.165784153800     0.00000000     0.00000000
 O      2   1   0     2.231270897768   180.00000000     0.00000000

------------------------------------------------------------------------------
                   ___                                                        
                  /   \      - P O W E R E D   B Y -                         
                 /     \                                                     
                 |  |  |   _    _      __       _____    __    __             
                 |  |  |  | |  | |    /  \     |  _  \  |  |  /  |          
                  \  \/   | |  | |   /    \    | | | |  |  | /  /          
                 / \  \   | |__| |  /  /\  \   | |_| |  |  |/  /          
                |  |  |   |  __  | /  /__\  \  |    /   |      \           
                |  |  |   | |  | | |   __   |  |    \   |  |\   \          
                \     /   | |  | | |  |  |  |  | |\  \  |  | \   \       
                 \___/    |_|  |_| |__|  |__|  |_| \__\ |__|  \__/        
                                                                              
                      - O R C A' S   B I G   F R I E N D -                    
                                      &                                       
                       - I N T E G R A L  F E E D E R -                       
                                                                              
 v1 FN, 2020, v2 2021, v3 2022-2024                                           
------------------------------------------------------------------------------


----------------------
SHARK INTEGRAL PACKAGE
----------------------

Number of atoms                             ...      3
Number of basis functions                   ...    108
Number of shells                            ...     48
Maximum angular momentum                    ...      3
Integral batch strategy                     ... SHARK/LIBINT Hybrid
RI-J (if used) integral strategy            ... SPLIT-RIJ (Revised 2003 algorithm where possible)
Printlevel                                  ...      1
Contraction scheme used                     ... PARTIAL GENERAL contraction
Prescreening option                         ... SCHWARTZ
   Thresh                                   ... 2.500e-11
   Tcut                                     ... 2.500e-12
   Tpresel                                  ... 2.500e-12 
Coulomb Range Separation                    ... NOT USED
Exchange Range Separation                   ... NOT USED
Multipole approximations                    ... NOT USED
Finite Nucleus Model                        ... NOT USED
CABS basis                                  ... NOT available
Auxiliary Coulomb fitting basis             ... NOT available
Auxiliary J/K fitting basis                 ... NOT available
Auxiliary Correlation fitting basis         ... NOT available
Auxiliary 'external' fitting basis          ... NOT available

Checking pre-screening integrals            ... done (  0.0 sec) Dimension = 48
Save PGC pre-screening integrals            ... done (  0.0 sec) Dimension = 48
Calculate PGC overlap integrals             ... done (  0.0 sec) Dimension = 30
Calculating pre-screening integrals (ORCA)  ... done (  0.0 sec) Dimension = 30
Check shell pair data                       ... done (  0.0 sec)
Shell pair information
Shell pair cut-off parameter TPreSel        ...   2.5e-12
Total number of shell pairs                 ...      1176
Shell pairs after pre-screening             ...      1018
Total number of primitive shell pairs       ...      1494
Primitive shell pairs kept                  ...      1269
          la=0 lb=0:    331 shell pairs
          la=1 lb=0:    257 shell pairs
          la=1 lb=1:     45 shell pairs
          la=2 lb=0:    169 shell pairs
          la=2 lb=1:     54 shell pairs
          la=2 lb=2:     21 shell pairs
          la=3 lb=0:     90 shell pairs
          la=3 lb=1:     27 shell pairs
          la=3 lb=2:     18 shell pairs
          la=3 lb=3:      6 shell pairs

Calculating one electron integrals          ... done (  0.0 sec)
Calculating Nuclear repulsion               ... done (  0.0 sec) ENN=     60.458200952743 Eh

Diagonalization of the overlap matrix:
Smallest eigenvalue                        ... 7.423e-04
Time for diagonalization                   ...    0.001 sec
Threshold for overlap eigenvalues          ... 1.000e-07
Number of eigenvalues below threshold      ... 0
Time for construction of square roots      ...    0.000 sec
Total time needed                          ...    0.001 sec

-------------------
DFT GRID GENERATION
-------------------

General Integration Accuracy     IntAcc      ... 4.388
Radial Grid Type                 RadialGrid  ... OptM3 with GC (2021)
Angular Grid (max. ang.)         AngularGrid ... 4 (Lebedev-302)
Angular grid pruning method      GridPruning ... 4 (adaptive)
Weight generation scheme         WeightScheme... mBecke (2022)
Basis function cutoff            BFCut       ... 1.0000e-11
Integration weight cutoff        WCut        ... 1.0000e-14
Partially contracted basis set               ... off
Rotationally invariant grid construction     ... off
Angular grids for H and He will be reduced by one unit

Total number of grid points                  ...    18354
Total number of batches                      ...      288
Average number of points per batch           ...       63
Average number of grid points per atom       ...     6118

---------------------
SHARK GRID GENERATION
---------------------

General Integration Accuracy     IntAcc      ... 4.388
Radial Grid Type                 RadialGrid  ... OptM3 with GC (2021)
Angular Grid (max. ang.)         AngularGrid ... 4 (Lebedev-302)
Angular grid pruning method      GridPruning ... 4 (adaptive)
Weight generation scheme         WeightScheme... mBecke (2022)
Basis function cutoff            BFCut       ... 1.0000e-11
Integration weight cutoff        WCut        ... 1.0000e-14
Partially contracted basis set               ... off
Rotationally invariant grid construction     ... off
Angular grids for H and He will be reduced by one unit
Steep s-basis detected: some atoms will have their radial
                        grid points doubled.

Total number of grid points                  ...    37015
Total number of batches                      ...      580
Average number of points per batch           ...       63
Average number of grid points per atom       ...    12338
Initializing property integral containers    ... done (  0.0 sec)

SHARK setup successfully completed in   0.4 seconds

Maximum memory used throughout the entire STARTUP-calculation: 18.5 MB
Occupation numbers will be reassigned to an Aufbau configuration
             **** ENERGY FILE WAS UPDATED (n2o_mp2_cc_pVTZ.en.tmp) ****
Finished Guess after   0.0 sec
Maximum memory used throughout the entire GUESS-calculation: 7.9 MB
----------------------------------------D-I-I-S--------------------------------------------
Iteration    Energy (Eh)           Delta-E    RMSDP     MaxDP     DIISErr   Damp  Time(sec)
-------------------------------------------------------------------------------------------
               ***  Starting incremental Fock matrix formation  ***
    1    -183.7431854728505130     0.00e+00  1.72e-04  2.58e-03  2.34e-02  0.700   0.4
    2    -183.7435053297077161    -3.20e-04  1.43e-04  2.05e-03  1.74e-02  0.700   0.4
                               ***Turning on AO-DIIS***
    3    -183.7437409959414651    -2.36e-04  1.24e-04  2.03e-03  1.28e-02  0.700   0.4
    4    -183.7439159797395405    -1.75e-04  3.41e-04  5.46e-03  9.63e-03  0.000   0.4
                              *** Initializing SOSCF ***
---------------------------------------S-O-S-C-F--------------------------------------
Iteration    Energy (Eh)           Delta-E    RMSDP     MaxDP     MaxGrad    Time(sec)
--------------------------------------------------------------------------------------
    5    -183.7443988071293290    -4.83e-04  6.01e-05  9.08e-04  1.91e-03     0.4
               *** Restarting incremental Fock matrix formation ***
    6    -183.7444073003353537    -8.49e-06  3.24e-05  6.88e-04  3.45e-04     0.4
    7    -183.7444089424093931    -1.64e-06  3.23e-05  6.24e-04  2.17e-04     0.4
    8    -183.7444095623548037    -6.20e-07  7.52e-06  1.64e-04  7.16e-05     0.4
    9    -183.7444096158404818    -5.35e-08  2.50e-06  5.50e-05  2.40e-05     0.4
   10    -183.7444096211192175    -5.28e-09  6.91e-07  9.59e-06  1.39e-05     0.3
                 **** Energy Check signals convergence ****

               *****************************************************
               *                     SUCCESS                       *
               *           SCF CONVERGED AFTER  10 CYCLES          *
               *****************************************************

             **** ENERGY FILE WAS UPDATED (n2o_mp2_cc_pVTZ.en.tmp) ****

----------------
TOTAL SCF ENERGY
----------------

Total Energy       :       -183.74440962111922 Eh           -4999.93958 eV

Components:
Nuclear Repulsion  :         60.45820095274325 Eh            1645.15129 eV
Electronic Energy  :       -244.20261057386247 Eh           -6645.09086 eV
One Electron Energy:       -369.89905080336717 Eh          -10065.46489 eV
Two Electron Energy:        125.69644022950470 Eh            3420.37403 eV

Virial components:
Potential Energy   :       -367.00416782473269 Eh           -9986.69112 eV
Kinetic Energy     :        183.25975820361344 Eh            4986.75154 eV
Virial Ratio       :          2.00264461452016

---------------
SCF CONVERGENCE
---------------

  Last Energy change         ...    5.2787e-09  Tolerance :   1.0000e-08
  Last MAX-Density change    ...    9.5875e-06  Tolerance :   1.0000e-07
  Last RMS-Density change    ...    6.9133e-07  Tolerance :   5.0000e-09
  Last DIIS Error            ...    1.9106e-03  Tolerance :   5.0000e-07
  Last Orbital Gradient      ...    1.3911e-05  Tolerance :   1.0000e-05
  Last Orbital Rotation      ...    9.4743e-06  Tolerance :   1.0000e-05


Total SCF time: 0 days 0 hours 0 min 3 sec 
Finished LeanSCF after   3.9 sec

Maximum memory used throughout the entire LEANSCF-calculation: 12.3 MB

------------------------------------------------------------------------------
                                ORCA  MP2 
------------------------------------------------------------------------------

NOTE: Switching SHARK to Segmented Contraction for MP2
      If that is not desired please turn off the PGCFlag in the input (%shark PGCFlag 0 end)
      Number of basis functions in BAS before restore: 108
      Number of basis functions in BAS after restore : 90
Freezing NCore=6 chemical core electrons
MP2 will be done in the AO integral direct mode
The Q1-step will be done using symmetric double matrices
Dimension of the basis                    ...   90
Memory devoted for MP2                    ... 4096 MB   
Memory needed for all in one shot         ...   23 MB
Number of MOs that can be treated together... 1455      
MP2 density construction                  ... relaxed
The MP2 gradient is requested => amplitudes will be stored on disk
Total number of MOs              ...    8
Number of MOs treated per batch  ...    8 
Number of batches necessary      ...    1 
OPERATORS   0/  0 PASS   0
-----------------------------------------------
 MP2 CORRELATION ENERGY   :     -0.649137883 Eh
-----------------------------------------------


---------------------
MP2 DENSITY FORMATION
---------------------

Completing the external part of the density      ... done
Storing the unrelaxed density                    ... done

Calculating G(D)                                 ... done
Completing the Lagrangian                        ... done
Solving the Z-vector equations                   ... 
-------------------
SHARK CP-SCF DRIVER
-------------------

Dimension of the orbital basis          ...     90
Dimension of the CPSCF-problem          ...    869
Number of operators                     ...      1
Max. number of iterations               ...    128
Convergence Tolerance                   ... 1.0e-04
Number of perturbations                 ...      1
Perturbation type                       ... REAL

----------------------------
POPLE LINEAR EQUATION SOLVER
----------------------------

  ITERATION   0:   ||err||_max =   9.8314e-02 (   0.5 sec)
  ITERATION   1:   ||err||_max =   4.2215e-02 (   0.5 sec)
  ITERATION   2:   ||err||_max =   1.5688e-02 (   0.5 sec)
  ITERATION   3:   ||err||_max =   8.2016e-03 (   0.5 sec)
  ITERATION   4:   ||err||_max =   1.6028e-03 (   0.5 sec)
  ITERATION   5:   ||err||_max =   3.1087e-04 (   0.5 sec)
  ITERATION   6:   ||err||_max =   5.4317e-05 (   0.5 sec)
                                                 ... done
Finalizing the relaxed density                   ... done
Transforming P to the AO basis                   ... done
Storing the relaxed density                      ... done

------------------------------------
ENERGY WEIGHTED DENSITY FINALIZATION
------------------------------------

Gathering the parts of the W-matrix              ...                                                      done
Forming the Z-density                            ... done
Transforming Z to the AO basis                   ... done
Calculating G(Z)                                 ... done
Finalizing the W-matrix                          ...                                                      done
Transforming W to the AO basis and storing       ... done

----------------------------------
MP2 DERIVATIVE INTEGRAL GENERATION
----------------------------------

Input SCF Electron Density              ... n2o_mp2_cc_pVTZ.scfp
Input Correlated Electron Density       ... n2o_mp2_cc_pVTZ.pmp2re
Input Energy Weighted Density           ... n2o_mp2_cc_pVTZ.wmp2.tmp
Input Wavefunction Amplitudes           ... n2o_mp2_cc_pVTZ.mp2tsaa.tmp

Nuclear repulsion gradient              ... done (  0.0 sec)
HCore & Overlap gradient  (SHARK)       ... done (  0.0 sec)
Analytic two-electron gradient terms    ... 
  Batch handling in the gradient evaluation:
  General contraction                   ... not used
  Memory available                      ... 4089.1 MB
  Memory per occupied orbital in Q2     ...    0.5 MB
  Memory per occupied orbital in Q3     ...    0.0 MB
  Total memory requirement per |i>      ...    0.5 MB
  Number of orbitals treated per batch  ...      8
  Number of batches to be done          ...      1
done (  3.4 sec)

---------------------------------------
MP2 TOTAL ENERGY:     -184.393547504 Eh
---------------------------------------

The final MP2 gradient
  0:   0.00000000   0.00000000   0.01621960
  1:  -0.00000000  -0.00000000  -0.01744154
  2:   0.00000000   0.00000000   0.00122194

-----------------------------------
NORM OF THE MP2 GRADIENT:  0.023849
-----------------------------------

Maximum memory used throughout the entire MP2-calculation: 43.2 MB

-------------------------   --------------------
FINAL SINGLE POINT ENERGY      -184.393547504404
-------------------------   --------------------

------------------------------------------------------------------------------
                         ORCA GEOMETRY RELAXATION STEP
------------------------------------------------------------------------------

Reading the OPT-File                    .... done
Getting information on internals        .... done
Copying old internal coords+grads       .... done
Making the new internal coordinates     .... (2022 redundants) done
Validating the new internal coordinates .... (2022 redundants) done
Calculating the B-matrix                .... done
Calculating the G,G- and P matrices     .... done
Transforming gradient to internals      .... done
Projecting the internal gradient        .... done
Number of atoms                         ....   3
Number of internal coordinates          ....   4
Current Energy                          ....  -184.393547504 Eh
Current gradient norm                   ....     0.023849023 Eh/bohr
Maximum allowed component of the step   ....  0.300
Current trust radius                    ....  0.300
Updating the Hessian (BFGS)             .... done
Forming the augmented Hessian           .... done
Diagonalizing the augmented Hessian     .... done
Last element of RFO vector              ....  0.999895309
Lowest eigenvalues of augmented Hessian:
 -0.000235335  0.544038227  0.544038227  1.086979094
Length of the computed step             ....  0.014471183
The final length of the internal step   ....  0.014471183
Converting the step to Cartesian space:
 Initial RMS(Int)=    0.0072355915
Transforming coordinates:
 Iter   0:  RMS(Cart)=    0.0037478656 RMS(Int)=    0.0072355915
done
Storing new coordinates                 .... done
The predicted energy change is          ....    -0.000117692
Previously predicted energy change      ....    -0.002699527
Actually observed energy change         ....    -0.003093742
Ratio of predicted to observed change   ....     1.146030927
New trust radius                        ....     0.450000000

                                .--------------------.
          ----------------------|Geometry convergence|-------------------------
          Item                value                   Tolerance       Converged
          ---------------------------------------------------------------------
          Energy change      -0.0030937419            0.0000050000      NO
          RMS gradient        0.0081327813            0.0001000000      NO
          MAX gradient        0.0162195987            0.0003000000      NO
          RMS step            0.0072355915            0.0020000000      NO
          MAX step            0.0144058476            0.0040000000      NO
          ........................................................
[...]
Analytic two-electron gradient terms    ... 
  Batch handling in the gradient evaluation:
  General contraction                   ... not used
  Memory available                      ... 4088.8 MB
  Memory per occupied orbital in Q2     ...    0.5 MB
  Memory per occupied orbital in Q3     ...    0.0 MB
  Total memory requirement per |i>      ...    0.5 MB
  Number of orbitals treated per batch  ...      8
  Number of batches to be done          ...      1
done (  3.4 sec)

---------------------------------------
MP2 TOTAL ENERGY:     -184.393687662 Eh
---------------------------------------

The final MP2 gradient
  0:   0.00000000  -0.00000000   0.00000384
  1:  -0.00000000   0.00000000  -0.00000400
  2:   0.00000000  -0.00000000   0.00000016

-----------------------------------
NORM OF THE MP2 GRADIENT:  0.000006
-----------------------------------

Maximum memory used throughout the entire MP2-calculation: 43.5 MB

-------------------------   --------------------
FINAL SINGLE POINT ENERGY      -184.393687661680
-------------------------   --------------------

                                *** OPTIMIZATION RUN DONE ***


------------------------------------------------------------------------------
                              ORCA PROPERTY CALCULATIONS
------------------------------------------------------------------------------

GBWName                                 ... n2o_mp2_cc_pVTZ.gbw
Number of atoms                         ...      3
Number of basis functions               ...    108
Max core memory                         ...   1024 MB

Electric properties:
Dipole moment                           ... YES
Quadrupole moment                       ...  NO
Static polarizability (Dipole/Dipole)   ...  NO
Static polarizability (Dipole/Quad.)    ...  NO
Static polarizability (Quad./Quad.)     ...  NO
Static polarizability (Velocity)        ...  NO

Atomic electric properties:
Dipole moment                           ...  NO
Quadrupole moment                       ...  NO
Static polarizability                   ...  NO

Choice of electric origin               ... Center of mass
Position of electric origin             ...     0.000000    -0.000000     0.000868

General magnetic properties:
Magnetizability                         ...  NO

EPR properties:
g-Tensor (aka g-matrix)                 ...  NO
Zero-Field splitting spin-orbit         ...  NO
Zero-field splitting spin-spin          ...  NO
Hyperfine couplings                     ...  NO (   0 nuclei)
Quadrupole couplings                    ...  NO (   0 nuclei)
Contact density                         ...  NO (   0 nuclei)

NMR properties:
Chemical shifts                         ...  NO (   0 nuclei)
Spin-rotation constants                 ...  NO (   0 nuclei)
Spin-spin couplings                     ...  NO (   0 nuclei,    0 pairs)

Choice of magnetic origin               ... GIAO
Position of magnetic origin             ...     0.000000     0.000000     0.000000

Properties with geometric perturbations:
SCF Hessian                             ...  NO
IR spectrum                             ...  NO
VCD spectrum                            ...  NO
X-ray spectroscopy properties:
SCF XES/XAS/RIXS spectra                ...  NO


-------------
DIPOLE MOMENT
-------------

Method             : SCF
Type of density    : Electron Density
Multiplicity       :   1
Irrep              :   0
Energy             :  -183.7414384695632066 Eh
Relativity type    : 
Basis              : AO
                                X                 Y                 Z
Electronic contribution:     -0.000000004       0.000000004      -0.185752426
Nuclear contribution   :      0.000000000      -0.000000000       0.009507377
                        -----------------------------------------
Total Dipole Moment    :     -0.000000004       0.000000004      -0.176245049
                        -----------------------------------------
Magnitude (a.u.)       :      0.176245049
Magnitude (Debye)      :      0.447979313



--------------------
Rotational spectrum 
--------------------
 
Rotational constants in cm-1:             0.000000             0.413217             0.413217 
Rotational constants in MHz :             0.000000         12387.940469         12387.940469 

Dipole components along the rotational axes: 
x,y,z [a.u.] :     0.176245     0.000000    -0.000000 
x,y,z [Debye]:     0.447979     0.000000    -0.000000 

 

-------------
DIPOLE MOMENT
-------------

Method             : MP2
Type of density    : Electron Density
Multiplicity       :   1
Level              : Unrelaxed density
Irrep              :   0
Energy             :     0.0000000000000000 Eh
Relativity type    : 
Basis              : AO
                                X                 Y                 Z
Electronic contribution:     -0.000000004       0.000000004      -0.131013469
Nuclear contribution   :      0.000000000      -0.000000000       0.009507377
                        -----------------------------------------
Total Dipole Moment    :     -0.000000004       0.000000004      -0.121506093
                        -----------------------------------------
Magnitude (a.u.)       :      0.121506093
Magnitude (Debye)      :      0.308843943



--------------------
Rotational spectrum 
--------------------
 
Rotational constants in cm-1:             0.000000             0.413217             0.413217 
Rotational constants in MHz :             0.000000         12387.940469         12387.940469 

Dipole components along the rotational axes: 
x,y,z [a.u.] :     0.121506     0.000000    -0.000000 
x,y,z [Debye]:     0.308844     0.000000    -0.000000 

 

-------------
DIPOLE MOMENT
-------------

Method             : MP2
Type of density    : Electron Density
Multiplicity       :   1
Level              : Relaxed density
Irrep              :   0
Energy             :     0.0000000000000000 Eh
Relativity type    : 
Basis              : AO
                                X                 Y                 Z
Electronic contribution:     -0.000000003       0.000000003       0.073066537
Nuclear contribution   :      0.000000000      -0.000000000       0.009507377
                        -----------------------------------------
Total Dipole Moment    :     -0.000000003       0.000000003       0.082573913
                        -----------------------------------------
Magnitude (a.u.)       :      0.082573913
Magnitude (Debye)      :      0.209886208



--------------------
Rotational spectrum 
--------------------
 
Rotational constants in cm-1:             0.000000             0.413217             0.413217 
Rotational constants in MHz :             0.000000         12387.940469         12387.940469 

Dipole components along the rotational axes: 
x,y,z [a.u.] :    -0.082574     0.000000    -0.000000 
x,y,z [Debye]:    -0.209886     0.000000    -0.000000 

 

Dipole moment calculation done in   0.0 sec 

Maximum memory used throughout the entire PROP-calculation: 5.2 MB

----------------------------------------------------------------------------
                           ORCA NUMERICAL FREQUENCIES
----------------------------------------------------------------------------

Number of atoms                ... 3
Central differences            ... used
Number of displacements        ... 18
Numerical increment            ... 5.000e-03 bohr
IR-spectrum generation         ... on
Raman-spectrum generation      ... off
Surface Crossing Hessian       ... off

The output will be reduced. Please look at the following files:
SCF program output             ... >n2o_mp2_cc_pVTZ.lastscf
Integral program output        ... >n2o_mp2_cc_pVTZ.lastint
Gradient program output        ... >n2o_mp2_cc_pVTZ.lastgrad
Dipole moment program output   ... >n2o_mp2_cc_pVTZ.lastmom

	<< Calculating gradient on displaced geometry   1 (of  18) >>
	<< Calculating gradient on displaced geometry   2 (of  18) >>
	<< Calculating gradient on displaced geometry   3 (of  18) >>
	<< Calculating gradient on displaced geometry   4 (of  18) >>
	<< Calculating gradient on displaced geometry   5 (of  18) >>
	<< Calculating gradient on displaced geometry   6 (of  18) >>
	<< Calculating gradient on displaced geometry   7 (of  18) >>
	<< Calculating gradient on displaced geometry   8 (of  18) >>
	<< Calculating gradient on displaced geometry   9 (of  18) >>
	<< Calculating gradient on displaced geometry  10 (of  18) >>
	<< Calculating gradient on displaced geometry  11 (of  18) >>
	<< Calculating gradient on displaced geometry  12 (of  18) >>
	<< Calculating gradient on displaced geometry  13 (of  18) >>
	<< Calculating gradient on displaced geometry  14 (of  18) >>
	<< Calculating gradient on displaced geometry  15 (of  18) >>
	<< Calculating gradient on displaced geometry  16 (of  18) >>
	<< Calculating gradient on displaced geometry  17 (of  18) >>
	<< Calculating gradient on displaced geometry  18 (of  18) >>

-----------------------
VIBRATIONAL FREQUENCIES
-----------------------

Scaling factor for frequencies =  1.000000000  (already applied!)

     0:       0.00 cm**-1
     1:       0.00 cm**-1
     2:       0.00 cm**-1
     3:       0.00 cm**-1
     4:       0.00 cm**-1
     5:     593.71 cm**-1
     6:     593.71 cm**-1
     7:    1292.37 cm**-1
     8:    2244.73 cm**-1


------------
NORMAL MODES
------------

These modes are the Cartesian displacements weighted by the diagonal matrix
M(i,i)=1/sqrt(m[i]) where m[i] is the mass of the displaced atom
Thus, these vectors are normalized but *not* orthogonal

                  0          1          2          3          4          5    
      0       0.000000   0.000000   0.000000   0.000000   0.000000  -0.290765
      1       0.000000   0.000000   0.000000   0.000000   0.000000  -0.303972
      2       0.000000   0.000000   0.000000   0.000000   0.000000   0.000000
      3       0.000000   0.000000   0.000000   0.000000   0.000000   0.575448
      4       0.000000   0.000000   0.000000   0.000000   0.000000   0.601586
      5       0.000000   0.000000   0.000000   0.000000   0.000000  -0.000000
      6       0.000000   0.000000   0.000000   0.000000   0.000000  -0.249238
      7       0.000000   0.000000   0.000000   0.000000   0.000000  -0.260559
      8       0.000000   0.000000   0.000000   0.000000   0.000000  -0.000000
                  6          7          8    
      0      -0.303972   0.000000  -0.000000
      1       0.290765  -0.000000   0.000000
      2      -0.000000  -0.735307   0.421124
      3       0.601586  -0.000000  -0.000000
      4      -0.575448   0.000000  -0.000000
      5       0.000000  -0.037618  -0.832450
      6      -0.260559   0.000000   0.000000
      7       0.249238  -0.000000  -0.000000
      8       0.000000   0.676690   0.360113


-----------
IR SPECTRUM
-----------

 Mode   freq       eps      Int      T**2         TX        TY        TZ
       cm**-1   L/(mol*cm) km/mol    a.u.
----------------------------------------------------------------------------
  5:    593.71   0.000802    4.05  0.000421  ( 0.014189  0.014834  0.000000)
  6:    593.71   0.000802    4.05  0.000421  ( 0.014834 -0.014189  0.000000)
  7:   1292.37   0.002320   11.72  0.000560  ( 0.000000 -0.000000 -0.023669)
  8:   2244.73   0.063335  320.07  0.008805  (-0.000000  0.000000 -0.093835)

* The epsilon (eps) is given for a Dirac delta lineshape.
** The dipole moment derivative (T) already includes vibrational overlap.

The first frequency considered to be a vibration is 5
The total number of vibrations considered is 4


--------------------------
THERMOCHEMISTRY AT 298.15K
--------------------------

Temperature         ...   298.15 K
Pressure            ...     1.00 atm
Total Mass          ...    44.01 AMU
Quasi RRHO          ...     True
Cut-Off Frequency   ...     1.00 cm^-1
The molecule is recognized as being linear

Throughout the following assumptions are being made:
  (1) The electronic state is orbitally nondegenerate
  (2) There are no thermally accessible electronically excited states
  (3) Hindered rotations indicated by low frequency modes are not
      treated as such but are treated as vibrations and this may
      cause some error
  (4) All equations used are the standard statistical mechanics
      equations for an ideal gas
  (5) All vibrations are strictly harmonic

freq.     593.71  E(vib)   ...       0.10 
freq.     593.71  E(vib)   ...       0.10 
freq.    1292.37  E(vib)   ...       0.01 
freq.    2244.73  E(vib)   ...       0.00 

------------
INNER ENERGY
------------

The inner energy is: U= E(el) + E(ZPE) + E(vib) + E(rot) + E(trans)
    E(el)   - is the total energy from the electronic structure calculation
              = E(kin-el) + E(nuc-el) + E(el-el) + E(nuc-nuc)
    E(ZPE)  - the the zero temperature vibrational energy from the frequency calculation
    E(vib)  - the the finite temperature correction to E(ZPE) due to population
              of excited vibrational states
    E(rot)  - is the rotational thermal energy
    E(trans)- is the translational thermal energy

Summary of contributions to the inner energy U:
Electronic energy                ...   -184.39368773 Eh
Zero point energy                ...      0.01076325 Eh       6.75 kcal/mol
Thermal vibrational correction   ...      0.00033868 Eh       0.21 kcal/mol
Thermal rotational correction    ...      0.00094418 Eh       0.59 kcal/mol
Thermal translational correction ...      0.00141627 Eh       0.89 kcal/mol
-----------------------------------------------------------------------
Total thermal energy                   -184.38022535 Eh


Summary of corrections to the electronic energy:
(perhaps to be used in another calculation)
Total thermal correction                  0.00269913 Eh       1.69 kcal/mol
Non-thermal (ZPE) correction              0.01076325 Eh       6.75 kcal/mol
-----------------------------------------------------------------------
Total correction                          0.01346238 Eh       8.45 kcal/mol


--------
ENTHALPY
--------

The enthalpy is H = U + kB*T
                kB is Boltzmann's constant
Total thermal energy              ...   -184.38022535 Eh 
Thermal Enthalpy correction       ...      0.00094421 Eh       0.59 kcal/mol
-----------------------------------------------------------------------
Total Enthalpy                    ...   -184.37928115 Eh


Note: Rotational entropy computed according to Herzberg 
Infrared and Raman Spectra, Chapter V,1, Van Nostrand Reinhold, 1945 
Point Group:  C(inf)v, Symmetry Number:   1  
Rotational constants in cm-1:     0.000000     0.413217     0.413217 

Vibrational entropy computed according to the QRRHO of S. Grimme
Chem.Eur.J. 2012 18 9955 using a reference frequency of 100.0 cm-1


-------
ENTROPY
-------

The entropy contributions are T*S = T*(S(el)+S(vib)+S(rot)+S(trans))
     S(el)   - electronic entropy
     S(vib)  - vibrational entropy
     S(rot)  - rotational entropy
     S(trans)- translational entropy
The entropies will be listed as multiplied by the temperature to get
units of energy

Electronic entropy                ...      0.00000000 Eh      0.00 kcal/mol
Vibrational entropy               ...      0.00045181 Eh      0.28 kcal/mol
Rotational entropy                ...      0.00681471 Eh      4.28 kcal/mol
Translational entropy             ...      0.01770893 Eh     11.11 kcal/mol
-----------------------------------------------------------------------
Final entropy term                ...      0.02497545 Eh     15.67 kcal/mol


-------------------
GIBBS FREE ENERGY
-------------------

The Gibbs free energy is G = H - T*S

Total enthalpy                    ...   -184.37928115 Eh 
Total entropy correction          ...     -0.02497545 Eh    -15.67 kcal/mol
-----------------------------------------------------------------------
Final Gibbs free energy         ...   -184.40425660 Eh

For completeness - the Gibbs free energy minus the electronic energy
G-E(el)                           ...     -0.01056887 Eh     -6.63 kcal/mol



--------------------------------
SUGGESTED CITATIONS FOR THIS RUN
--------------------------------

Below you find a list of papers that are relevant to this ORCA run
We neither can nor want to force you to cite these papers, but we appreciate if you do
You receive ORCA, which is the product of decades of hard work by many enthusiastic individuals, for free
The only thing we kindly ask in return is that you cite our papers,
We deeply appreciate it, if you show your appreciation for ORCA by not just citing the generic ORCA reference.

Please note that relegating all ORCA citations to the supporting information does *not* help us.
SI sections are not indexed - citations you put there will not count into any citation statistics
But we need these citations in order to attract the funding resources that allow us to do what we are doing

Therefore, if you are a happy ORCA user, please consider citing a few of the papers listed below in the main body of your paper

In addition to the list printed below, the program has created the file n2o_mp2_cc_pVTZ.bibtex that contains the list in bibtex format
You can import this file easily into all common literature databanks and citation aid programs


List of essential papers. We consider these as the minimum necessary citations

  1. Neese,F.
     Software update: the ORCA program system, version 5.0
     WIRES Comput. Molec. Sci., 2022 12(1)e1606
     doi.org/10.1002/wcms.1606

List of papers to cite with high priority. The work reported in these papers was absolutely
necessary for this run to complete.
Our perspective: the developers of density functionals and basis sets usually get cited in chemistry papers
Good! But without the algorithms to do something with them, the functionals or basis sets would not do anything.
Hence, in our opinion, the algorithm design and method developments papers are equally worthy of getting cited

  1. Bykov,D.; Petrenko,T.; Izsak,R.; Kossmann,S.; Becker,U.; Valeev,E.; Neese,F.
     Efficient implementation of the analytic second derivatives of Hartree-Fock and hybrid DFT energies: a detailed analysis of different approximations
     Molec. Phys., 2015 113 1961-1977
     doi.org/10.1080/00268976.2015.1025114
  2. Neese,F.
     The SHARK Integral Generation and Digestion System
     J. Comp. Chem., 2022  1-16
     doi.org/10.1002/jcc.26942

List of suggested additional citations. These are papers that are important in the 'surrounding' of 
of this run, or papers that preceded the highly important papers. If you like your results we are grateful for a citation.

  1. Neese,F.
     The ORCA program system
     WIRES Comput. Molec. Sci., 2012 2(1)73-78
     doi.org/10.1002/wcms.81
  2. Neese,F.
     Software update: the ORCA program system, version 4.0
     WIRES Comput. Molec. Sci., 2018 8(1)1-6
     doi.org/10.1002/wcms.1327
  3. Neese,F.; Wennmohs,F.; Becker,U.; Riplinger,C.
     The ORCA quantum chemistry program package
     J. Chem. Phys., 2020 152 Art. No. L224108
     doi.org/10.1063/5.0004608

List of optional additional citations

  1. Neese,F.
     Approximate second-order SCF convergence for spin unrestricted wavefunctions
     Chem. Phys. Lett., 2000 325(1-3)93-98
     doi.org/10.1016/s0009-2614(00)00662-x

Timings for individual modules:

Sum of individual times          ...      305.885 sec (=   5.098 min)
Startup calculation              ...        2.730 sec (=   0.046 min)   0.9 %
SCF iterations                   ...       17.069 sec (=   0.284 min)   5.6 %
Property calculations            ...        0.044 sec (=   0.001 min)   0.0 %
MP2 module                       ...       54.704 sec (=   0.912 min)  17.9 %
Geometry relaxation              ...        0.008 sec (=   0.000 min)   0.0 %
Numerical frequency calculation  ...      231.329 sec (=   3.855 min)  75.6 %
                             ****ORCA TERMINATED NORMALLY****
TOTAL RUN TIME: 0 days 0 hours 4 minutes 55 seconds 517 msec
