
                                 *****************
                                 * O   R   C   A *
                                 *****************

                                            #,                                       
                                            ###                                      
                                            ####                                     
                                            #####                                    
                                            ######                                   
                                           ########,                                 
                                     ,,################,,,,,                         
                               ,,#################################,,                 
                          ,,##########################################,,             
                       ,#########################################, ''#####,          
                    ,#############################################,,   '####,        
                  ,##################################################,,,,####,       
                ,###########''''           ''''###############################       
              ,#####''   ,,,,##########,,,,          '''####'''          '####       
            ,##' ,,,,###########################,,,                        '##       
           ' ,,###''''                  '''############,,,                           
         ,,##''                                '''############,,,,        ,,,,,,###''
      ,#''                                            '''#######################'''  
     '                                                          ''''####''''         
             ,#######,   #######,   ,#######,      ##                                
            ,#'     '#,  ##    ##  ,#'     '#,    #''#        ,####,   ,####,        
            ##       ##  ##   ,#'  ##            #'  '#       #'       #'  '#        
            ##       ##  #######   ##           ,######,      #####,   #    #        
            '#,     ,#'  ##    ##  '#,     ,#' ,#      #,     #,   #   #,  ,#        
             '#######'   ##     ##  '#######'  #'      '#     '####' # '####'        



                #########################################################
                #                        -***-                          #
                #          Department of theory and spectroscopy        #
                #                                                       #
                #                      Frank Neese                      #
                #                                                       #
                #     Directorship, Architecture, Infrastructure        #
                #                    SHARK, DRIVERS                     #
                #        Core code/Algorithms in most modules           #
                #                                                       #
                #        Max Planck Institute fuer Kohlenforschung      #
                #                Kaiser Wilhelm Platz 1                 #
                #                 D-45470 Muelheim/Ruhr                 #
                #                      Germany                          #
                #                                                       #
                #                  All rights reserved                  #
                #                        -***-                          #
                #########################################################


                         Program Version 6.0.1  -  RELEASE   -


 With contributions from (in alphabetic order):
[Max-Planck-Institut fuer Kohlenforschung]                               
  Daniel Aravena         : Magnetic Suceptibility                        
  Michael Atanasov       : Ab Initio Ligand Field Theory (pilot matlab implementation)
  Alexander A. Auer      : GIAO ZORA, VPT2 properties, NMR spectrum      
  Ute Becker             : All parallelization in ORCA, NUMFREQ, NUMCALC 
  Giovanni Bistoni       : ED, misc. LED, open-shell LED, HFLD           
  Martin Brehm           : Molecular dynamics                            
  Dmytro Bykov           : pre 5.0 version of the SCF Hessian            
  Marcos Casanova-Páez   : Triplet and SCS-CIS(D). UHF-(DLPNO)-IP/EA/STEOM-CCSD. UHF-CVS-IP/STEOM-CCSD   
  Vijay G. Chilkuri      : MRCI spin determinant printing, contributions to CSF-ICE 
  Pauline Colinet        : FMM embedding                                 
  Dipayan Datta          : RHF DLPNO-CCSD density                        
  Achintya Kumar Dutta   : EOM-CC, STEOM-CC                              
  Nicolas Foglia         : Exact transition moments, OPA infrastructure, MCD improvements    
  Dmitry Ganyushin       : Spin-Orbit,Spin-Spin,Magnetic field MRCI      
  Miquel Garcia-Rates    : C-PCM and meta-GGA Hessian, CCSD/C-PCM, Gaussian charge scheme 
  Tiago L. C. Gouveia    : GS-ROHF, GS-ROCIS                             
  Yang Guo               : DLPNO-NEVPT2, F12-NEVPT2, CIM, IAO-localization        
  Andreas Hansen         : Spin unrestricted coupled pair/coupled cluster methods 
  Ingolf Harden          : AUTO-CI MPn and infrastructure                
  Benjamin Helmich-Paris : MC-RPA, TRAH-(SCF,CASSCF), AVAS, COSX integrals, SCF dyn. polar. 
  Lee Huntington         : MR-EOM, pCC                                   
  Robert Izsak           : Overlap fitted RIJCOSX, COSX-SCS-MP3, EOM     
  Riya Kayal             : Wick's Theorem for AUTO-CI, AUTO-CI UHF-CCSDT 
  Emily Kempfer          : AUTO-CI, RHF CISDT and CCSDT                  
  Christian Kollmar      : KDIIS, OOCD, Brueckner-CCSD(T), CCSD density, CASPT2, CASPT2-K, improved NEVPT2 
  Axel Koslowski         : Symmetry handling                             
  Simone Kossmann        : meta-GGA functionals, TD-DFT gradient, OOMP2, (MP2 Hessian; deprecated post 5.0) 
  Lucas Lang             : DCDCAS                                        
  Marvin Lechner         : AUTO-CI (C++ implementation), FIC-MRCC        
  Spencer Leger          : CASSCF response                               
  Dagmar Lenk            : GEPOL surface, SMD, ORCA-2-JSON               
  Dimitrios Liakos       : Extrapolation schemes; Compound Job, initial MDCI parallelization 
  Dimitrios Manganas     : Further ROCIS development; embedding schemes. LFT, Crystal Embedding 
  Dimitrios Pantazis     : SARC Basis sets                               
  Anastasios Papadopoulos: AUTO-CI, single reference methods and gradients 
  Taras Petrenko         : pre 6.0 DFT Hessian and TD-DFT gradient, (ASA, deprecated), ECA, 1-Electron XAS/XES, NRVS 
  Peter Pinski           : DLPNO-MP2, DLPNO-MP2 Gradient                 
  Christoph Reimann      : Effective Core Potentials                     
  Marius Retegan         : Local ZFS, SOC                                
  Christoph Riplinger    : Optimizer, TS searches, QM/MM, DLPNO-CCSD(T), (RO)-DLPNO pert. Triples 
  Michael Roemelt        : Original ROCIS implementation                 
  Masaaki Saitow         : Open-shell DLPNO-CCSD energy and density      
  Barbara Sandhoefer     : DKH picture change effects                    
  Kantharuban Sivalingam : CASSCF convergence/infrastructure, NEVPT2 and variants, FIC-MRCI 
  Bernardo de Souza      : ESD, SOC TD-DFT                               
  Georgi L. Stoychev     : AutoAux, RI-MP2 NMR, DLPNO-MP2 response, X2C  
  Van Anh Tran           : RI-MP2 g-tensors                              
  Willem Van den Heuvel  : Paramagnetic NMR                              
  Zikuan Wang            : NOTCH, Electric field optimization            
  Frank Wennmohs         : Technical directorship and infrastructure     
  Hang Xu                : AUTO-CI-Response properties                   
                                                                         
[FACCTs GmbH]                                                            
  Markus Bursch, Miquel Garcia-Rates, Christoph Riplinger, Bernardo de Souza, Georgi L. Stoychev 
                                                                 
  APM, Basis sets (HGBS, AHGBS, def-TZVP (Ac-Lr), def2-XVPD (La-Lu)), CI-OPT, improved COSX, DLPNO-Multilevel,           
  DOCKER, DRACO, updates on ESD, GOAT, IRC, LR-CPCM, MBIS, meta-GGA TD-DFT gradient, ML-optimized integration grids, 
  MM, NACMEs, nearIR, NEB, NEB-TS, NL-DFT gradient (VV10), 2- and 3-layer-ONIOM, interface openCOSMO-RS, QMMM,   
  Crystal-QMMM, SF, symmetry and pop. for TD-DFT, r2SCAN hybrids, SOLVATOR                                   
                                                                         
[Other institutions]                                                     
  V. Asgeirsson          : NEB                                           
  Christoph Bannwarth    : sTDA-DFT, sTD-DFT, PBEh-3c, B97-3c, D3        
  Sebastian Ehlert       : rSCAN, r2SCAN, r2SCAN-3c, D4, dhf basis sets  
  Marvin Friede          : D4 for Fr, Ra, Ac-Lr                          
  Lars Goerigk           : TD-DFT with DH, B97 family of functionals     
  Stefan Grimme          : VdW corrections, initial TS optimization, DFT functionals, gCP, sTDA/sTD-DF 
  Waldemar Hujo          : DFT-NL                                        
  H. Jonsson             : NEB                                           
  Holger Kruse           : gCP                                           
  Marcel Mueller         : wB97X-3c, vDZP basis set                      
  Hagen Neugebauer       : wr2SCAN                                       
  Tobias Risthaus        : range-separated hybrid DFT                    
  Lukas Wittmann         : regularized MP2, r2SCAN double-hybrids, wr2SCAN        
                                                                         
We gratefully acknowledge several colleagues who have allowed us to      
interface, adapt or use parts of their codes:                            
  Ed Valeev, F. Pavosevic, A. Kumar             : LibInt (2-el integral package), F12 methods 
  Garnet Chan, S. Sharma, J. Yang, R. Olivares  : DMRG                   
  Ulf Ekstrom                                   : XCFun DFT Library      
  Mihaly Kallay                                 : mrcc  (arbitrary order and MRCC methods)
  Frank Weinhold                                : gennbo (NPA and NBO analysis)           
  Simon Mueller                                 : openCOSMO-RS                            
  Christopher J. Cramer and Donald G. Truhlar   : smd solvation model                     
  S Lehtola, MJT Oliveira, MAL Marques          : LibXC Library                           
  Liviu Ungur et al                             : ANISO software                          


 Your calculation uses the libint2 library for the computation of 2-el integrals
 For citations please refer to: http://libint.valeyev.net

 Your ORCA version has been built with support for libXC version: 6.2.2
 For citations please refer to: https://libxc.gitlab.io

 This ORCA versions uses:
   CBLAS   interface :  Fast vector & matrix operations
   LAPACKE interface :  Fast linear algebra routines
   SCALAPACK package :  Parallel linear algebra routines
   Shared memory     :  Shared parallel matrices
   BLAS/LAPACK       :  OpenBLAS 0.3.27  USE64BITINT DYNAMIC_ARCH NO_AFFINITY Haswell SINGLE_THREADED
        Core in use  :  Haswell
   Copyright (c) 2011-2014, The OpenBLAS Project


================================================================================

----- Orbital basis set information -----
Your calculation utilizes the basis: def2-TZVP
   F. Weigend and R. Ahlrichs, Phys. Chem. Chem. Phys. 7, 3297 (2005).

================================================================================
                                        WARNINGS
                       Please study these warnings very carefully!
================================================================================


WARNING: Geometry Optimization
  ===> : Switching off AutoStart
         For restart on a previous wavefunction, please use MOREAD

================================================================================
                                       INPUT FILE
================================================================================
NAME = n2o_hf_def2_TZVP.inp
|  1> !HF def2-TZVP opt NumFreq
|  2> * XYZ 0 1
|  3> N 0.000000 0.000000 -1.187431
|  4> N 0.000000 0.000000 -0.074171
|  5> O 0.000000 0.000000 1.103902
|  6> *
|  7> 
|  8>                          ****END OF INPUT****
================================================================================

                       *****************************
                       * Geometry Optimization Run *
                       *****************************

Geometry optimization settings:
Update method            Update   .... BFGS
Choice of coordinates    CoordSys .... (2022) Redundant Internals
Initial Hessian          InHess   .... Almloef's Model
Max. no of cycles        MaxIter  .... 50

Convergence Tolerances:
Energy Change            TolE     ....  5.0000e-06 Eh
Max. Gradient            TolMAXG  ....  3.0000e-04 Eh/bohr
RMS Gradient             TolRMSG  ....  1.0000e-04 Eh/bohr
Max. Displacement        TolMAXD  ....  4.0000e-03 bohr
RMS Displacement         TolRMSD  ....  2.0000e-03 bohr
Strict Convergence                .... False

------------------------------------------------------------------------------
                        ORCA OPTIMIZATION COORDINATE SETUP
------------------------------------------------------------------------------

The optimization will be done in redundant internal coordinates (2022)
Making redundant internal coordinates   ...  (2022 redundants) done
Evaluating the initial hessian          ...  (Almloef) done
Evaluating the coordinates              ...  done
Calculating the B-matrix                .... done
Calculating the G-matrix                .... done
Diagonalizing the G-matrix              .... done
The first mode is                       ....    0
The number of degrees of freedom        ....    4

    -----------------------------------------------------------------
                    Redundant Internal Coordinates


    -----------------------------------------------------------------
         Definition                    Initial Value    Approx d2E/dq
    -----------------------------------------------------------------
      1. B(N   1,N   0)                  1.1133         1.385267   
      2. B(O   2,N   1)                  1.1781         1.091763   
      3. L(N   0,N   1,O   2, 2)       180.0000         0.544038   
      4. L(N   0,N   1,O   2, 1)       180.0000         0.544038   
    -----------------------------------------------------------------

Number of atoms                         .... 3
Number of degrees of freedom            .... 4


         *************************************************************
         *                GEOMETRY OPTIMIZATION CYCLE   1            *
         *************************************************************
---------------------------------
CARTESIAN COORDINATES (ANGSTROEM)
---------------------------------
  N      0.000000    0.000000   -1.187431
  N      0.000000    0.000000   -0.074171
  O      0.000000    0.000000    1.103902

----------------------------
CARTESIAN COORDINATES (A.U.)
----------------------------
  NO LB      ZA    FRAG     MASS         X           Y           Z
   0 N     7.0000    0    14.007    0.000000    0.000000   -2.243919
   1 N     7.0000    0    14.007    0.000000    0.000000   -0.140163
   2 O     8.0000    0    15.999    0.000000    0.000000    2.086072

--------------------------------
INTERNAL COORDINATES (ANGSTROEM)
--------------------------------
 N      0   0   0     0.000000000000     0.00000000     0.00000000
 N      1   0   0     1.113260000000     0.00000000     0.00000000
 O      2   1   0     1.178073000000   179.99999879     0.00000000

---------------------------
INTERNAL COORDINATES (A.U.)
---------------------------
 N      0   0   0     0.000000000000     0.00000000     0.00000000
 N      1   0   0     2.103756515849     0.00000000     0.00000000
 O      2   1   0     2.226235335767   179.99999879     0.00000000

---------------------
BASIS SET INFORMATION
---------------------
There are 2 groups of distinct atoms

 Group   1 Type N   : 11s6p2d1f contracted to 5s3p2d1f pattern {62111/411/11/1}
 Group   2 Type O   : 11s6p2d1f contracted to 5s3p2d1f pattern {62111/411/11/1}

Atom   0N    basis set group =>   1
Atom   1N    basis set group =>   1
Atom   2O    basis set group =>   2
------------------------------------------------------------------------------
                             ORCA STARTUP CALCULATIONS
------------------------------------------------------------------------------
------------------------------------------------------------------------------
                   ___                                                        
                  /   \      - P O W E R E D   B Y -                         
                 /     \                                                     
                 |  |  |   _    _      __       _____    __    __             
                 |  |  |  | |  | |    /  \     |  _  \  |  |  /  |          
                  \  \/   | |  | |   /    \    | | | |  |  | /  /          
                 / \  \   | |__| |  /  /\  \   | |_| |  |  |/  /          
                |  |  |   |  __  | /  /__\  \  |    /   |      \           
                |  |  |   | |  | | |   __   |  |    \   |  |\   \          
                \     /   | |  | | |  |  |  |  | |\  \  |  | \   \       
                 \___/    |_|  |_| |__|  |__|  |_| \__\ |__|  \__/        
                                                                              
                      - O R C A' S   B I G   F R I E N D -                    
                                      &                                       
                       - I N T E G R A L  F E E D E R -                       
                                                                              
 v1 FN, 2020, v2 2021, v3 2022-2024                                           
------------------------------------------------------------------------------


----------------------
SHARK INTEGRAL PACKAGE
----------------------

Number of atoms                             ...      3
Number of basis functions                   ...     93
Number of shells                            ...     33
Maximum angular momentum                    ...      3
Integral batch strategy                     ... SHARK/LIBINT Hybrid
RI-J (if used) integral strategy            ... SPLIT-RIJ (Revised 2003 algorithm where possible)
Printlevel                                  ...      1
Contraction scheme used                     ... SEGMENTED contraction
Prescreening option                         ... SCHWARTZ
   Thresh                                   ... 2.500e-11
   Tcut                                     ... 2.500e-12
   Tpresel                                  ... 2.500e-12 
Coulomb Range Separation                    ... NOT USED
Exchange Range Separation                   ... NOT USED
Multipole approximations                    ... NOT USED
Finite Nucleus Model                        ... NOT USED
CABS basis                                  ... NOT available
Auxiliary Coulomb fitting basis             ... NOT available
Auxiliary J/K fitting basis                 ... NOT available
Auxiliary Correlation fitting basis         ... NOT available
Auxiliary 'external' fitting basis          ... NOT available

Checking pre-screening integrals            ... done (  0.0 sec) Dimension = 33
Check shell pair data                       ... done (  0.0 sec)
Shell pair information
Shell pair cut-off parameter TPreSel        ...   2.5e-12
Total number of shell pairs                 ...       561
Shell pairs after pre-screening             ...       554
Total number of primitive shell pairs       ...      1896
Primitive shell pairs kept                  ...      1612
          la=0 lb=0:    114 shell pairs
          la=1 lb=0:    135 shell pairs
          la=1 lb=1:     45 shell pairs
          la=2 lb=0:     89 shell pairs
          la=2 lb=1:     54 shell pairs
          la=2 lb=2:     21 shell pairs
          la=3 lb=0:     45 shell pairs
          la=3 lb=1:     27 shell pairs
          la=3 lb=2:     18 shell pairs
          la=3 lb=3:      6 shell pairs

Calculating one electron integrals          ... done (  0.0 sec)
Calculating Nuclear repulsion               ... done (  0.0 sec) ENN=     61.379291869189 Eh

Diagonalization of the overlap matrix:
Smallest eigenvalue                        ... 1.180e-04
Time for diagonalization                   ...    0.001 sec
Threshold for overlap eigenvalues          ... 1.000e-07
Number of eigenvalues below threshold      ... 0
Time for construction of square roots      ...    0.000 sec
Total time needed                          ...    0.001 sec

-------------------
DFT GRID GENERATION
-------------------

General Integration Accuracy     IntAcc      ... 4.388
Radial Grid Type                 RadialGrid  ... OptM3 with GC (2021)
Angular Grid (max. ang.)         AngularGrid ... 4 (Lebedev-302)
Angular grid pruning method      GridPruning ... 4 (adaptive)
Weight generation scheme         WeightScheme... mBecke (2022)
Basis function cutoff            BFCut       ... 1.0000e-11
Integration weight cutoff        WCut        ... 1.0000e-14
Partially contracted basis set               ... off
Rotationally invariant grid construction     ... off
Angular grids for H and He will be reduced by one unit

Total number of grid points                  ...    18349
Total number of batches                      ...      288
Average number of points per batch           ...       63
Average number of grid points per atom       ...     6116
Initializing property integral containers    ... done (  0.0 sec)

SHARK setup successfully completed in   0.1 seconds

Maximum memory used throughout the entire STARTUP-calculation: 12.4 MB
-------------------------------------------------------------------------------
                                 ORCA GUESS
                   Start orbitals & Density for SCF / CASSCF
-------------------------------------------------------------------------------

------------
SCF SETTINGS
------------
Hamiltonian:
 Ab initio Hamiltonian  Method          .... Hartree-Fock(GTOs)


General Settings:
 Integral files         IntName         .... n2o_hf_def2_TZVP
 Hartree-Fock type      HFTyp           .... RHF
 Total Charge           Charge          ....    0
 Multiplicity           Mult            ....    1
 Number of Electrons    NEL             ....   22
 Basis Dimension        Dim             ....   93
 Nuclear Repulsion      ENuc            ....     61.3792918692 Eh

Convergence Acceleration:
 AO-DIIS                CNVDIIS         .... on
   Start iteration      DIISMaxIt       ....    12
   Startup error        DIISStart       ....  0.200000
   # of expansion vecs  DIISMaxEq       ....     5
   Bias factor          DIISBfac        ....   1.050
   Max. coefficient     DIISMaxC        ....  10.000
 MO-DIIS                CNVKDIIS        .... off
 Trust-Rad. Augm. Hess. CNVTRAH         .... auto
   Auto Start mean grad. ratio tolernc. ....  1.125000
   Auto Start start iteration           ....    50
   Auto Start num. interpolation iter.  ....    10
   Max. Number of Micro iterations      ....    24
   Max. Number of Macro iterations      .... Maxiter - #DIIS iter
   Number of Davidson start vectors     ....     2
   Converg. threshold    (grad. norm)   ....   1.000e-05
   Grad. Scal. Fac. for Micro threshold ....   0.100
   Minimum threshold for Micro iter.    ....   1.000e-02
   NR start threshold (gradient norm)   ....   1.000e-04
   Initial trust radius                 ....   0.400
   Minimum AH scaling param. (alpha)    ....   1.000
   Maximum AH scaling param. (alpha)    .... 1000.000
   Quad. conv. algorithm                .... NR
   White noise on init. David. guess    .... on
   Maximum white noise                  ....   0.010
   Pseudo random numbers                .... off
   Inactive MOs                         .... canonical
   Orbital update algorithm             .... Taylor
   Preconditioner                       .... Diag
   Full preconditioner red. dimension   ....   250
 SOSCF                  CNVSOSCF        .... on
   Start iteration      SOSCFMaxIt      ....   150
   Startup grad/error   SOSCFStart      ....  0.003300
   Hessian update       SOSCFHessUp     .... L-BFGS
 Level Shifting         CNVShift        .... on
   Level shift para.    LevelShift      ....    0.2500
   Turn off err/grad.   ShiftErr        ....    0.0010
 Zerner damping         CNVZerner       .... off
 Static damping         CNVDamp         .... on
   Fraction old density DampFac         ....    0.7000
   Max. Damping (<1)    DampMax         ....    0.9800
   Min. Damping (>=0)   DampMin         ....    0.0000
   Turn off err/grad.   DampErr         ....    0.1000

SCF Procedure:
 Maximum # iterations   MaxIter         ....   125
 SCF integral mode      SCFMode         .... Direct
   Integral package                     .... SHARK and LIBINT hybrid scheme
 Reset frequency        DirectResetFreq ....    20
 Integral Threshold     Thresh          ....  2.500e-11 Eh
 Primitive CutOff       TCut            ....  2.500e-12 Eh

Convergence Tolerance:
 Convergence Check Mode ConvCheckMode   .... Total+1el-Energy
 Convergence forced     ConvForced      .... 0
 Energy Change          TolE            ....  1.000e-08 Eh
 1-El. energy change                    ....  1.000e-05 Eh
 Orbital Gradient       TolG            ....  1.000e-05
 Orbital Rotation angle TolX            ....  1.000e-05
 DIIS Error             TolErr          ....  5.000e-07

------------------------------
INITIAL GUESS: MODEL POTENTIAL
------------------------------
Loading Hartree-Fock densities                     ... done
Calculating cut-offs                               ... done
Initializing the effective Hamiltonian             ... done
Setting up the integral package (SHARK)            ... done
Starting the Coulomb interaction                   ... done (   0.0 sec)
Making the grid                                    ... done (   0.0 sec)
Mapping shells                                     ... done
Starting the XC term evaluation                    ... done (   0.0 sec)
Transforming the Hamiltonian                       ... done (   0.0 sec)
Diagonalizing the Hamiltonian                      ... done (   0.0 sec)
Back transforming the eigenvectors                 ... done (   0.0 sec)
Now organizing SCF variables                       ... done
                      ------------------
                      INITIAL GUESS DONE (   0.0 sec)
                      ------------------
             **** ENERGY FILE WAS UPDATED (n2o_hf_def2_TZVP.en.tmp) ****
Finished Guess after   0.1 sec
Maximum memory used throughout the entire GUESS-calculation: 7.6 MB

-------------------------------------------------------------------------------------------
                                      ORCA LEAN-SCF
                              memory conserving SCF solver
-------------------------------------------------------------------------------------------

----------------------------------------D-I-I-S--------------------------------------------
Iteration    Energy (Eh)           Delta-E    RMSDP     MaxDP     DIISErr   Damp  Time(sec)
-------------------------------------------------------------------------------------------
               ***  Starting incremental Fock matrix formation  ***
    1    -183.6628938880061241     0.00e+00  1.88e-03  2.96e-02  3.00e-01  0.700   0.4
    2    -183.6971761756068986    -3.43e-02  1.33e-03  2.10e-02  2.20e-01  0.700   0.4
                               ***Turning on AO-DIIS***
    3    -183.7170106978320518    -1.98e-02  8.11e-04  1.29e-02  1.61e-01  0.700   0.4
    4    -183.7298822336607032    -1.29e-02  5.99e-04  1.02e-02  1.14e-01  0.700   0.4
    5    -183.7389142730272624    -9.03e-03  4.46e-04  7.43e-03  7.99e-02  0.700   0.4
    6    -183.7453663679101510    -6.45e-03  1.10e-03  1.74e-02  5.58e-02  0.000   0.4
    7    -183.7608543646073826    -1.55e-02  1.19e-04  2.56e-03  4.80e-03  0.000   0.4
                              *** Initializing SOSCF ***
---------------------------------------S-O-S-C-F--------------------------------------
Iteration    Energy (Eh)           Delta-E    RMSDP     MaxDP     MaxGrad    Time(sec)
--------------------------------------------------------------------------------------
    8    -183.7608982451337170    -4.39e-05  7.69e-05  1.17e-03  2.33e-03     0.5
               *** Restarting incremental Fock matrix formation ***
    9    -183.7609133203770853    -1.51e-05  5.23e-05  8.37e-04  6.09e-04     0.4
   10    -183.7609166044917401    -3.28e-06  3.65e-05  4.28e-04  4.63e-04     0.4
   11    -183.7609184302913832    -1.83e-06  5.37e-06  1.26e-04  4.49e-05     0.4
   12    -183.7609184577032693    -2.74e-08  1.86e-06  5.80e-05  1.23e-05     0.4
   13    -183.7609184597475291    -2.04e-09  4.10e-07  8.93e-06  5.07e-06     0.4
                 **** Energy Check signals convergence ****

               *****************************************************
               *                     SUCCESS                       *
               *           SCF CONVERGED AFTER  13 CYCLES          *
               *****************************************************

             **** ENERGY FILE WAS UPDATED (n2o_hf_def2_TZVP.en.tmp) ****

----------------
TOTAL SCF ENERGY
----------------

Total Energy       :       -183.76091845974753 Eh           -5000.38881 eV

Components:
Nuclear Repulsion  :         61.37929186918852 Eh            1670.21544 eV
Electronic Energy  :       -245.14021032893604 Eh           -6670.60425 eV
One Electron Energy:       -371.70263167766444 Eh          -10114.54282 eV
Two Electron Energy:        126.56242134872841 Eh            3443.93857 eV

Virial components:
Potential Energy   :       -367.24787913092297 Eh           -9993.32284 eV
Kinetic Energy     :        183.48696067117544 Eh            4992.93404 eV
Virial Ratio       :          2.00149306407153

---------------
SCF CONVERGENCE
---------------

  Last Energy change         ...    2.0443e-09  Tolerance :   1.0000e-08
  Last MAX-Density change    ...    8.9271e-06  Tolerance :   1.0000e-07
  Last RMS-Density change    ...    4.1029e-07  Tolerance :   5.0000e-09
  Last DIIS Error            ...    2.3259e-03  Tolerance :   5.0000e-07
  Last Orbital Gradient      ...    5.0665e-06  Tolerance :   1.0000e-05
  Last Orbital Rotation      ...    4.7855e-06  Tolerance :   1.0000e-05


----------------
ORBITAL ENERGIES
----------------

  NO   OCC          E(Eh)            E(eV) 
   0   2.0000     -20.652264      -561.9767 
   1   2.0000     -15.840257      -431.0353 
   2   2.0000     -15.693029      -427.0290 
   3   2.0000      -1.619921       -44.0803 
   4   2.0000      -1.432480       -38.9798 
   5   2.0000      -0.830602       -22.6018 
   6   2.0000      -0.768786       -20.9197 
   7   2.0000      -0.768786       -20.9197 
   8   2.0000      -0.697669       -18.9846 
   9   2.0000      -0.492550       -13.4030 
  10   2.0000      -0.492550       -13.4030 
  11   0.0000       0.156632         4.2622 
  12   0.0000       0.156632         4.2622 
  13   0.0000       0.206598         5.6218 
  14   0.0000       0.379867        10.3367 
  15   0.0000       0.419781        11.4228 
  16   0.0000       0.419781        11.4228 
  17   0.0000       0.435757        11.8576 
  18   0.0000       0.512461        13.9448 
  19   0.0000       0.555212        15.1081 
  20   0.0000       0.555212        15.1081 
  21   0.0000       0.559745        15.2314 
*Only the first 10 virtual orbitals were printed.

                    ********************************
                    * MULLIKEN POPULATION ANALYSIS *
                    ********************************

-----------------------
MULLIKEN ATOMIC CHARGES
-----------------------
   0 N :   -0.043890
   1 N :    0.476318
   2 O :   -0.432428
Sum of atomic charges:    0.0000000

--------------------------------
MULLIKEN REDUCED ORBITAL CHARGES
--------------------------------
  0 N s       :     3.795135  s :     3.795135
      pz      :     1.009762  p :     3.165241
      px      :     1.077740
      py      :     1.077740
      dz2     :     0.019806  d :     0.077337
      dxz     :     0.028765
      dyz     :     0.028765
      dx2y2   :     0.000000
      dxy     :     0.000000
      f0      :     0.001619  f :     0.006177
      f+1     :     0.002279
      f-1     :     0.002279
      f+2     :     0.000000
      f-2     :     0.000000
      f+3     :     0.000000
      f-3     :     0.000000

  1 N s       :     3.183569  s :     3.183569
      pz      :     0.945964  p :     3.117123
      px      :     1.085580
      py      :     1.085580
      dz2     :     0.014567  d :     0.206184
      dxz     :     0.095808
      dyz     :     0.095808
      dx2y2   :     0.000000
      dxy     :     0.000000
      f0      :     0.004422  f :     0.016805
      f+1     :     0.006191
      f-1     :     0.006191
      f+2     :     0.000000
      f-2     :     0.000000
      f+3     :     0.000000
      f-3     :     0.000000

  2 O s       :     3.927248  s :     3.927248
      pz      :     1.066780  p :     4.449593
      px      :     1.691407
      py      :     1.691407
      dz2     :     0.028990  d :     0.051760
      dxz     :     0.011385
      dyz     :     0.011385
      dx2y2   :     0.000000
      dxy     :     0.000000
      f0      :     0.002138  f :     0.003828
      f+1     :     0.000845
      f-1     :     0.000845
      f+2     :     0.000000
      f-2     :     0.000000
      f+3     :     0.000000
      f-3     :     0.000000



                     *******************************
                     * LOEWDIN POPULATION ANALYSIS *
                     *******************************

----------------------
LOEWDIN ATOMIC CHARGES
----------------------
   0 N :    0.010813
   1 N :    0.054710
   2 O :   -0.065522

-------------------------------
LOEWDIN REDUCED ORBITAL CHARGES
-------------------------------
  0 N s       :     3.361331  s :     3.361331
      pz      :     1.335745  p :     3.419538
      px      :     1.041896
      py      :     1.041896
      dz2     :     0.076347  d :     0.178844
      dxz     :     0.051248
      dyz     :     0.051248
      dx2y2   :     0.000000
      dxy     :     0.000000
      f0      :     0.011106  f :     0.029475
      f+1     :     0.009185
      f-1     :     0.009185
      f+2     :     0.000000
      f-2     :     0.000000
      f+3     :     0.000000
      f-3     :     0.000000

  1 N s       :     2.946826  s :     2.946826
      pz      :     1.280198  p :     3.296361
      px      :     1.008082
      py      :     1.008082
      dz2     :     0.156292  d :     0.655279
      dxz     :     0.249493
      dyz     :     0.249493
      dx2y2   :     0.000000
      dxy     :     0.000000
      f0      :     0.020711  f :     0.046823
      f+1     :     0.013056
      f-1     :     0.013056
      f+2     :     0.000000
      f-2     :     0.000000
      f+3     :     0.000000
      f-3     :     0.000000

  2 O s       :     3.490437  s :     3.490437
      pz      :     1.252611  p :     4.449616
      px      :     1.598503
      py      :     1.598503
      dz2     :     0.061968  d :     0.112984
      dxz     :     0.025508
      dyz     :     0.025508
      dx2y2   :     0.000000
      dxy     :     0.000000
      f0      :     0.006428  f :     0.012485
      f+1     :     0.003028
      f-1     :     0.003028
      f+2     :     0.000000
      f-2     :     0.000000
      f+3     :     0.000000
      f-3     :     0.000000



                      *****************************
                      * MAYER POPULATION ANALYSIS *
                      *****************************

  NA   - Mulliken gross atomic population
  ZA   - Total nuclear charge
  QA   - Mulliken gross atomic charge
  VA   - Mayer's total valence
  BVA  - Mayer's bonded valence
  FA   - Mayer's free valence

  ATOM       NA         ZA         QA         VA         BVA        FA
  0 N      7.0439     7.0000    -0.0439     2.6777     2.6777     0.0000
  1 N      6.5237     7.0000     0.4763     4.0024     4.0024     0.0000
  2 O      8.4324     8.0000    -0.4324     1.8713     1.8713     0.0000

  Mayer bond orders larger than 0.100000
B(  0-N ,  1-N ) :   2.4044 B(  0-N ,  2-O ) :   0.2733 B(  1-N ,  2-O ) :   1.5980 


-------
TIMINGS
-------

Total SCF time: 0 days 0 hours 0 min 5 sec 

Total time                  ....       5.149 sec
Sum of individual times     ....       5.134 sec  ( 99.7%)

SCF preparation             ....       0.024 sec  (  0.5%)
Fock matrix formation       ....       5.007 sec  ( 97.3%)
  Startup                   ....       0.001 sec  (  0.0% of F)
  Coulomb+Exchange Fock     ....       5.002 sec  ( 99.9% of F)
Diagonalization             ....       0.000 sec  (  0.0%)
Density matrix formation    ....       0.062 sec  (  1.2%)
Total Energy calculation    ....       0.001 sec  (  0.0%)
Population analysis         ....       0.002 sec  (  0.0%)
Orbital Transformation      ....       0.007 sec  (  0.1%)
Orbital Orthonormalization  ....       0.000 sec  (  0.0%)
DIIS solution               ....       0.015 sec  (  0.3%)
SOSCF solution              ....       0.015 sec  (  0.3%)
Finished LeanSCF after   5.2 sec

Maximum memory used throughout the entire LEANSCF-calculation: 13.4 MB

-------------------------   --------------------
FINAL SINGLE POINT ENERGY      -183.760918459748
-------------------------   --------------------

------------------------------------------------------------------------------
                         ORCA SCF GRADIENT CALCULATION
------------------------------------------------------------------------------

Nuc. rep. gradient        (SHARK) ... done (  0.0 sec)
HCore & Overlap gradient  (SHARK) ... done (  0.0 sec)
Two-electron gradient     (SHARK) ... done (  2.9 sec)

------------------
CARTESIAN GRADIENT
------------------

   1   N   :    0.000000000   -0.000000000   -0.095462830
   2   N   :   -0.000000000    0.000000000    0.072226867
   3   O   :    0.000000000   -0.000000000    0.023235962

Difference to translation invariance:
           :   -0.0000000000    0.0000000000    0.0000000000

Difference to rotation invariance:
           :    0.0000000000    0.0000000000    0.0000000000

Norm of the Cartesian gradient     ...    0.1219417161
RMS gradient                       ...    0.0406472387
MAX gradient                       ...    0.0954628295

-------
TIMINGS
-------

Total SCF gradient time     ....        2.929 sec

Densities                   ....       0.000 sec  (  0.0%)
One electron gradient       ....       0.016 sec  (  0.5%)
Two electron gradient       ....       2.913 sec  ( 99.4%)

Maximum memory used throughout the entire SCFGRAD-calculation: 27.9 MB
------------------------------------------------------------------------------
                         ORCA GEOMETRY RELAXATION STEP
------------------------------------------------------------------------------

Reading the OPT-File                    .... done
Getting information on internals        .... done
Copying old internal coords+grads       .... done
Making the new internal coordinates     .... (2022 redundants) done
Validating the new internal coordinates .... (2022 redundants) done
Calculating the B-matrix                .... done
Calculating the G,G- and P matrices     .... done
Transforming gradient to internals      .... done
Projecting the internal gradient        .... done
Number of atoms                         ....   3
Number of internal coordinates          ....   4
Current Energy                          ....  -183.760918460 Eh
Current gradient norm                   ....     0.121941716 Eh/bohr
Maximum allowed component of the step   ....  0.300
Current trust radius                    ....  0.300
Evaluating the initial hessian          ....  (Almloef) done
Projecting the Hessian                  .... done
Forming the augmented Hessian           .... done
Diagonalizing the augmented Hessian     .... done
Last element of RFO vector              ....  0.997435749
Lowest eigenvalues of augmented Hessian:
 -0.007036741  0.544038227  0.544038227  1.092243663
Length of the computed step             ....  0.071751629
The final length of the internal step   ....  0.071751629
Converting the step to Cartesian space:
 Initial RMS(Int)=    0.0358758144
Transforming coordinates:
 Iter   0:  RMS(Cart)=    0.0221078352 RMS(Int)=    0.0358758144
done
Storing new coordinates                 .... done

                                .--------------------.
          ----------------------|Geometry convergence|-------------------------
          Item                value                   Tolerance       Converged
          ---------------------------------------------------------------------
          RMS gradient        0.0491249981            0.0001000000      NO
          MAX gradient        0.0954628295            0.0003000000      NO
          RMS step            0.0358758144            0.0020000000      NO
          MAX step            0.0685646729            0.0040000000      NO
          ........................................................
          Max(Bonds)      0.0363      Max(Angles)    0.00
          Max(Dihed)        0.00      Max(Improp)    0.00
          ---------------------------------------------------------------------

The optimization has not yet converged - more geometry cycles are needed


    ---------------------------------------------------------------------------
                         Redundant Internal Coordinates
                            (Angstroem and degrees)

        Definition                    Value    dE/dq     Step     New-Value
    ----------------------------------------------------------------------------
     1. B(N   1,N   0)                1.1133  0.095463 -0.0363    1.0770   
     2. B(O   2,N   1)                1.1781  0.023236 -0.0112    1.1669   
     3. L(N   0,N   1,O   2, 2)       180.00 -0.000000    0.00    180.00   
     4. L(N   0,N   1,O   2, 1)       180.00 -0.000000    0.00    180.00   
    ----------------------------------------------------------------------------

Geometry step timings:
Preparation and reading OPT file:      0.000 s (12.658 %)
Internal coordinates            :      0.000 s ( 4.882 %)
B/P matrices and projection     :      0.000 s (14.286 %)
Hessian update/contruction      :      0.000 s (16.456 %)
Making the step                 :      0.000 s (10.307 %)
Converting the step to Cartesian:      0.000 s ( 5.244 %)
Storing new data                :      0.000 s ( 4.521 %)
Checking convergence            :      0.000 s ( 0.181 %)
Final printing                  :      0.000 s (31.103 %)
Total time                      :      0.001 s

Time for energy+gradient        :      8.386 s
Time for complete geometry iter :      8.407 s

         *************************************************************
         *                GEOMETRY OPTIMIZATION CYCLE   2            *
         *************************************************************
---------------------------------
CARTESIAN COORDINATES (ANGSTROEM)
---------------------------------
  N      0.000000   -0.000000   -1.159512
  N     -0.000000    0.000000   -0.082535
  O      0.000000   -0.000000    1.084347

----------------------------
CARTESIAN COORDINATES (A.U.)
----------------------------
  NO LB      ZA    FRAG     MASS         X           Y           Z
   0 N     7.0000    0    14.007    0.000000   -0.000000   -2.191161
   1 N     7.0000    0    14.007   -0.000000    0.000000   -0.155969
   2 O     8.0000    0    15.999    0.000000   -0.000000    2.049120

--------------------------------
INTERNAL COORDINATES (ANGSTROEM)
--------------------------------
 N      0   0   0     0.000000000000     0.00000000     0.00000000
 N      1   0   0     1.076977137818     0.00000000     0.00000000
 O      2   1   0     1.166882661440   180.00000000     0.00000000

---------------------------
INTERNAL COORDINATES (A.U.)
---------------------------
 N      0   0   0     0.000000000000     0.00000000     0.00000000
 N      1   0   0     2.035191842970     0.00000000     0.00000000
 O      2   1   0     2.205088660543   180.00000000     0.00000000

------------------------------------------------------------------------------
                   ___                                                        
                  /   \      - P O W E R E D   B Y -                         
                 /     \                                                     
                 |  |  |   _    _      __       _____    __    __             
                 |  |  |  | |  | |    /  \     |  _  \  |  |  /  |          
                  \  \/   | |  | |   /    \    | | | |  |  | /  /          
                 / \  \   | |__| |  /  /\  \   | |_| |  |  |/  /          
                |  |  |   |  __  | /  /__\  \  |    /   |      \           
                |  |  |   | |  | | |   __   |  |    \   |  |\   \          
                \     /   | |  | | |  |  |  |  | |\  \  |  | \   \       
                 \___/    |_|  |_| |__|  |__|  |_| \__\ |__|  \__/        
                                                                              
                      - O R C A' S   B I G   F R I E N D -                    
                                      &                                       
                       - I N T E G R A L  F E E D E R -                       
                                                                              
 v1 FN, 2020, v2 2021, v3 2022-2024                                           
------------------------------------------------------------------------------


----------------------
SHARK INTEGRAL PACKAGE
----------------------

Number of atoms                             ...      3
Number of basis functions                   ...     93
Number of shells                            ...     33
Maximum angular momentum                    ...      3
Integral batch strategy                     ... SHARK/LIBINT Hybrid
RI-J (if used) integral strategy            ... SPLIT-RIJ (Revised 2003 algorithm where possible)
Printlevel                                  ...      1
Contraction scheme used                     ... SEGMENTED contraction
Prescreening option                         ... SCHWARTZ
   Thresh                                   ... 2.500e-11
   Tcut                                     ... 2.500e-12
   Tpresel                                  ... 2.500e-12 
Coulomb Range Separation                    ... NOT USED
Exchange Range Separation                   ... NOT USED
Multipole approximations                    ... NOT USED
Finite Nucleus Model                        ... NOT USED
CABS basis                                  ... NOT available
Auxiliary Coulomb fitting basis             ... NOT available
Auxiliary J/K fitting basis                 ... NOT available
Auxiliary Correlation fitting basis         ... NOT available
Auxiliary 'external' fitting basis          ... NOT available

Checking pre-screening integrals            ... done (  0.0 sec) Dimension = 33
Check shell pair data                       ... done (  0.0 sec)
Shell pair information
Shell pair cut-off parameter TPreSel        ...   2.5e-12
Total number of shell pairs                 ...       561
Shell pairs after pre-screening             ...       554
Total number of primitive shell pairs       ...      1896
Primitive shell pairs kept                  ...      1616
          la=0 lb=0:    114 shell pairs
          la=1 lb=0:    135 shell pairs
          la=1 lb=1:     45 shell pairs
          la=2 lb=0:     89 shell pairs
          la=2 lb=1:     54 shell pairs
          la=2 lb=2:     21 shell pairs
          la=3 lb=0:     45 shell pairs
          la=3 lb=1:     27 shell pairs
          la=3 lb=2:     18 shell pairs
          la=3 lb=3:      6 shell pairs

Calculating one electron integrals          ... done (  0.0 sec)
Calculating Nuclear repulsion               ... done (  0.0 sec) ENN=     62.678832082125 Eh

Diagonalization of the overlap matrix:
Smallest eigenvalue                        ... 9.208e-05
Time for diagonalization                   ...    0.001 sec
Threshold for overlap eigenvalues          ... 1.000e-07
Number of eigenvalues below threshold      ... 0
Time for construction of square roots      ...    0.000 sec
Total time needed                          ...    0.001 sec

-------------------
DFT GRID GENERATION
-------------------

General Integration Accuracy     IntAcc      ... 4.388
Radial Grid Type                 RadialGrid  ... OptM3 with GC (2021)
Angular Grid (max. ang.)         AngularGrid ... 4 (Lebedev-302)
Angular grid pruning method      GridPruning ... 4 (adaptive)
Weight generation scheme         WeightScheme... mBecke (2022)
Basis function cutoff            BFCut       ... 1.0000e-11
Integration weight cutoff        WCut        ... 1.0000e-14
Partially contracted basis set               ... off
Rotationally invariant grid construction     ... off
Angular grids for H and He will be reduced by one unit

Total number of grid points                  ...    18343
Total number of batches                      ...      288
Average number of points per batch           ...       63
Average number of grid points per atom       ...     6114
Initializing property integral containers    ... done (  0.0 sec)

SHARK setup successfully completed in   0.1 seconds

Maximum memory used throughout the entire STARTUP-calculation: 12.5 MB
Occupation numbers will be reassigned to an Aufbau configuration
             **** ENERGY FILE WAS UPDATED (n2o_hf_def2_TZVP.en.tmp) ****
Finished Guess after   0.0 sec
Maximum memory used throughout the entire GUESS-calculation: 7.7 MB
----------------------------------------D-I-I-S--------------------------------------------
Iteration    Energy (Eh)           Delta-E    RMSDP     MaxDP     DIISErr   Damp  Time(sec)
-------------------------------------------------------------------------------------------
               ***  Starting incremental Fock matrix formation  ***
    1    -183.7625407217301472     0.00e+00  4.42e-04  7.68e-03  2.33e-02  0.700   0.4
    2    -183.7629657379153514    -4.25e-04  3.43e-04  6.41e-03  1.75e-02  0.700   0.4
                               ***Turning on AO-DIIS***
    3    -183.7632690333491041    -3.03e-04  2.77e-04  5.59e-03  1.29e-02  0.700   0.4
    4    -183.7634878268075340    -2.19e-04  7.14e-04  1.51e-02  9.41e-03  0.000   0.4
                              *** Initializing SOSCF ***
---------------------------------------S-O-S-C-F--------------------------------------
Iteration    Energy (Eh)           Delta-E    RMSDP     MaxDP     MaxGrad    Time(sec)
--------------------------------------------------------------------------------------
    5    -183.7640625238551024    -5.75e-04  6.31e-05  1.59e-03  1.39e-03     0.4
               *** Restarting incremental Fock matrix formation ***
    6    -183.7640679934843888    -5.47e-06  2.87e-05  7.49e-04  2.30e-04     0.4
    7    -183.7640687339968508    -7.41e-07  1.98e-05  4.28e-04  8.75e-05     0.4
    8    -183.7640688578771915    -1.24e-07  4.21e-06  1.08e-04  3.01e-05     0.4
    9    -183.7640688764076344    -1.85e-08  1.01e-06  3.04e-05  6.49e-06     0.4
   10    -183.7640688768365180    -4.29e-10  2.35e-07  3.71e-06  4.85e-06     0.4
                 **** Energy Check signals convergence ****

               *****************************************************
               *                     SUCCESS                       *
               *           SCF CONVERGED AFTER  10 CYCLES          *
               *****************************************************

             **** ENERGY FILE WAS UPDATED (n2o_hf_def2_TZVP.en.tmp) ****

----------------
TOTAL SCF ENERGY
----------------

Total Energy       :       -183.76406887683652 Eh           -5000.47453 eV

Components:
Nuclear Repulsion  :         62.67883208212491 Eh            1705.57773 eV
Electronic Energy  :       -246.44290095896145 Eh           -6706.05226 eV
One Electron Energy:       -374.23876116246538 Eh          -10183.55441 eV
Two Electron Energy:        127.79586020350393 Eh            3477.50215 eV

Virial components:
Potential Energy   :       -367.54122706207954 Eh          -10001.30524 eV
Kinetic Energy     :        183.77715818524305 Eh            5000.83071 eV
Virial Ratio       :          1.99992877619539

---------------
SCF CONVERGENCE
---------------

  Last Energy change         ...    4.2888e-10  Tolerance :   1.0000e-08
  Last MAX-Density change    ...    3.7066e-06  Tolerance :   1.0000e-07
  Last RMS-Density change    ...    2.3503e-07  Tolerance :   5.0000e-09
  Last DIIS Error            ...    1.3924e-03  Tolerance :   5.0000e-07
  Last Orbital Gradient      ...    4.8466e-06  Tolerance :   1.0000e-05
  Last Orbital Rotation      ...    4.1650e-06  Tolerance :   1.0000e-05


Total SCF time: 0 days 0 hours 0 min 3 sec 
Finished LeanSCF after   3.8 sec

Maximum memory used throughout the entire LEANSCF-calculation: 13.5 MB

-------------------------   --------------------
FINAL SINGLE POINT ENERGY      -183.764068876837
-------------------------   --------------------

------------------------------------------------------------------------------
                         ORCA SCF GRADIENT CALCULATION
------------------------------------------------------------------------------

Nuc. rep. gradient        (SHARK) ... done (  0.0 sec)
HCore & Overlap gradient  (SHARK) ... done (  0.0 sec)
Two-electron gradient     (SHARK) ... done (  2.7 sec)

------------------
CARTESIAN GRADIENT
------------------

   1   N   :    0.000000001   -0.000000001    0.014689364
   2   N   :   -0.000000002    0.000000002   -0.011755970
   3   O   :    0.000000001   -0.000000001   -0.002933394

Difference to translation invariance:
           :   -0.0000000000   -0.0000000000    0.0000000000

Difference to rotation invariance:
           :    0.0000000000    0.0000000000    0.0000000000

Norm of the Cartesian gradient     ...    0.0190416658
RMS gradient                       ...    0.0063472219
MAX gradient                       ...    0.0146893637

-------
TIMINGS
-------

Total SCF gradient time     ....        2.711 sec

Densities                   ....       0.000 sec  (  0.0%)
One electron gradient       ....       0.013 sec  (  0.5%)
Two electron gradient       ....       2.697 sec  ( 99.5%)

Maximum memory used throughout the entire SCFGRAD-calculation: 27.9 MB
------------------------------------------------------------------------------
                         ORCA GEOMETRY RELAXATION STEP
------------------------------------------------------------------------------

Reading the OPT-File                    .... done
Getting information on internals        .... done
Copying old internal coords+grads       .... done
Making the new internal coordinates     .... (2022 redundants) done
Validating the new internal coordinates .... (2022 redundants) done
Calculating the B-matrix                .... done
Calculating the G,G- and P matrices     .... done
Transforming gradient to internals      .... done
Projecting the internal gradient        .... done
Number of atoms                         ....   3
Number of internal coordinates          ....   4
Current Energy                          ....  -183.764068877 Eh
Current gradient norm                   ....     0.019041666 Eh/bohr
Maximum allowed component of the step   ....  0.300
Current trust radius                    ....  0.300
Updating the Hessian (BFGS)             .... done
Forming the augmented Hessian           .... done
Diagonalizing the augmented Hessian     .... done
Last element of RFO vector              ....  0.999955410
Lowest eigenvalues of augmented Hessian:
 -0.000141284  0.544038227  0.544038227  1.096497654
Length of the computed step             ....  0.009443857
The final length of the internal step   ....  0.009443857
Converting the step to Cartesian space:
 Initial RMS(Int)=    0.0047219286
Transforming coordinates:
 Iter   0:  RMS(Cart)=    0.0028592745 RMS(Int)=    0.0047219286
done
Storing new coordinates                 .... done
The predicted energy change is          ....    -0.000070648
Previously predicted energy change      ....    -0.003536484
Actually observed energy change         ....    -0.003150417
Ratio of predicted to observed change   ....     0.890833093
New trust radius                        ....     0.450000000

                                .--------------------.
          ----------------------|Geometry convergence|-------------------------
          Item                value                   Tolerance       Converged
          ---------------------------------------------------------------------
          Energy change      -0.0031504171            0.0000050000      NO
          RMS gradient        0.0074896963            0.0001000000      NO
          MAX gradient        0.0146893637            0.0003000000      NO
          RMS step            0.0047219286            0.0020000000      NO
          MAX step            0.0091561139            0.0040000000      NO
          ........................................................
          Max(Bonds)      0.0048      Max(Angles)    0.00
          Max(Dihed)        0.00      Max(Improp)    0.00
          ---------------------------------------------------------------------

The optimization has not yet converged - more geometry cycles are needed


    ---------------------------------------------------------------------------
                         Redundant Internal Coordinates
                            (Angstroem and degrees)

        Definition                    Value    dE/dq     Step     New-Value
    ----------------------------------------------------------------------------
     1. B(N   1,N   0)                1.0770 -0.014689  0.0048    1.0818   
     2. B(O   2,N   1)                1.1669 -0.002933  0.0012    1.1681   
     3. L(N   0,N   1,O   2, 2)       180.00 -0.000000    0.00    180.00   
     4. L(N   0,N   1,O   2, 1)       180.00 -0.000000    0.00    180.00   
    ----------------------------------------------------------------------------

Geometry step timings:
Preparation and reading OPT file:      0.000 s (11.824 %)
Internal coordinates            :      0.000 s ( 4.561 %)
B/P matrices and projection     :      0.000 s (13.007 %)
Hessian update/contruction      :      0.000 s (23.480 %)
Making the step                 :      0.000 s ( 7.601 %)
Converting the step to Cartesian:      0.000 s ( 3.885 %)
Storing new data                :      0.000 s ( 6.081 %)
Checking convergence            :      0.000 s ( 2.027 %)
Final printing                  :      0.000 s (27.196 %)
Total time                      :      0.001 s

Time for energy+gradient        :      6.740 s
Time for complete geometry iter :      6.758 s

         *************************************************************
         *                GEOMETRY OPTIMIZATION CYCLE   3            *
         *************************************************************
---------------------------------
CARTESIAN COORDINATES (ANGSTROEM)
---------------------------------
  N      0.000000   -0.000000   -1.163151
  N     -0.000000    0.000000   -0.081328
  O      0.000000   -0.000000    1.086779

----------------------------
CARTESIAN COORDINATES (A.U.)
----------------------------
  NO LB      ZA    FRAG     MASS         X           Y           Z
   0 N     7.0000    0    14.007    0.000000   -0.000000   -2.198036
   1 N     7.0000    0    14.007   -0.000000    0.000000   -0.153688
   2 O     8.0000    0    15.999    0.000000   -0.000000    2.053714

--------------------------------
INTERNAL COORDINATES (ANGSTROEM)
--------------------------------
 N      0   0   0     0.000000000000     0.00000000     0.00000000
 N      1   0   0     1.081822344618     0.00000000     0.00000000
 O      2   1   0     1.168106882578   179.99999774     0.00000000

---------------------------
INTERNAL COORDINATES (A.U.)
---------------------------
 N      0   0   0     0.000000000000     0.00000000     0.00000000
 N      1   0   0     2.044347956885     0.00000000     0.00000000
 O      2   1   0     2.207402103221   179.99999774     0.00000000

------------------------------------------------------------------------------
                   ___                                                        
                  /   \      - P O W E R E D   B Y -                         
                 /     \                                                     
                 |  |  |   _    _      __       _____    __    __             
                 |  |  |  | |  | |    /  \     |  _  \  |  |  /  |          
                  \  \/   | |  | |   /    \    | | | |  |  | /  /          
                 / \  \   | |__| |  /  /\  \   | |_| |  |  |/  /          
                |  |  |   |  __  | /  /__\  \  |    /   |      \           
                |  |  |   | |  | | |   __   |  |    \   |  |\   \          
                \     /   | |  | | |  |  |  |  | |\  \  |  | \   \       
                 \___/    |_|  |_| |__|  |__|  |_| \__\ |__|  \__/        
                                                                              
                      - O R C A' S   B I G   F R I E N D -                    
                                      &                                       
                       - I N T E G R A L  F E E D E R -                       
                                                                              
 v1 FN, 2020, v2 2021, v3 2022-2024                                           
------------------------------------------------------------------------------


----------------------
SHARK INTEGRAL PACKAGE
----------------------

Number of atoms                             ...      3
Number of basis functions                   ...     93
Number of shells                            ...     33
Maximum angular momentum                    ...      3
Integral batch strategy                     ... SHARK/LIBINT Hybrid
RI-J (if used) integral strategy            ... SPLIT-RIJ (Revised 2003 algorithm where possible)
Printlevel                                  ...      1
Contraction scheme used                     ... SEGMENTED contraction
Prescreening option                         ... SCHWARTZ
   Thresh                                   ... 2.500e-11
   Tcut                                     ... 2.500e-12
   Tpresel                                  ... 2.500e-12 
Coulomb Range Separation                    ... NOT USED
Exchange Range Separation                   ... NOT USED
Multipole approximations                    ... NOT USED
Finite Nucleus Model                        ... NOT USED
CABS basis                                  ... NOT available
Auxiliary Coulomb fitting basis             ... NOT available
Auxiliary J/K fitting basis                 ... NOT available
Auxiliary Correlation fitting basis         ... NOT available
Auxiliary 'external' fitting basis          ... NOT available

Checking pre-screening integrals            ... done (  0.0 sec) Dimension = 33
Check shell pair data                       ... done (  0.0 sec)
Shell pair information
Shell pair cut-off parameter TPreSel        ...   2.5e-12
Total number of shell pairs                 ...       561
Shell pairs after pre-screening             ...       554
Total number of primitive shell pairs       ...      1896
Primitive shell pairs kept                  ...      1616
          la=0 lb=0:    114 shell pairs
          la=1 lb=0:    135 shell pairs
          la=1 lb=1:     45 shell pairs
          la=2 lb=0:     89 shell pairs
          la=2 lb=1:     54 shell pairs
          la=2 lb=2:     21 shell pairs
          la=3 lb=0:     45 shell pairs
          la=3 lb=1:     27 shell pairs
          la=3 lb=2:     18 shell pairs
          la=3 lb=3:      6 shell pairs

Calculating one electron integrals          ... done (  0.0 sec)
Calculating Nuclear repulsion               ... done (  0.0 sec) ENN=     62.508758004957 Eh

Diagonalization of the overlap matrix:
Smallest eigenvalue                        ... 9.510e-05
Time for diagonalization                   ...    0.001 sec
Threshold for overlap eigenvalues          ... 1.000e-07
Number of eigenvalues below threshold      ... 0
Time for construction of square roots      ...    0.000 sec
Total time needed                          ...    0.001 sec

-------------------
DFT GRID GENERATION
-------------------

General Integration Accuracy     IntAcc      ... 4.388
Radial Grid Type                 RadialGrid  ... OptM3 with GC (2021)
Angular Grid (max. ang.)         AngularGrid ... 4 (Lebedev-302)
Angular grid pruning method      GridPruning ... 4 (adaptive)
Weight generation scheme         WeightScheme... mBecke (2022)
Basis function cutoff            BFCut       ... 1.0000e-11
Integration weight cutoff        WCut        ... 1.0000e-14
Partially contracted basis set               ... off
Rotationally invariant grid construction     ... off
Angular grids for H and He will be reduced by one unit

Total number of grid points                  ...    18345
Total number of batches                      ...      289
Average number of points per batch           ...       63
Average number of grid points per atom       ...     6115
Initializing property integral containers    ... done (  0.0 sec)

SHARK setup successfully completed in   0.1 seconds

Maximum memory used throughout the entire STARTUP-calculation: 12.5 MB
Occupation numbers will be reassigned to an Aufbau configuration
             **** ENERGY FILE WAS UPDATED (n2o_hf_def2_TZVP.en.tmp) ****
Finished Guess after   0.0 sec
Maximum memory used throughout the entire GUESS-calculation: 7.7 MB
----------------------------------------D-I-I-S--------------------------------------------
Iteration    Energy (Eh)           Delta-E    RMSDP     MaxDP     DIISErr   Damp  Time(sec)
-------------------------------------------------------------------------------------------
               ***  Starting incremental Fock matrix formation  ***
                              *** Initializing SOSCF ***
---------------------------------------S-O-S-C-F--------------------------------------
Iteration    Energy (Eh)           Delta-E    RMSDP     MaxDP     MaxGrad    Time(sec)
--------------------------------------------------------------------------------------
    1    -183.7641032252487889     0.00e+00  2.24e-04  3.74e-03  1.74e-04     0.4
               *** Restarting incremental Fock matrix formation ***
    2    -183.7641283610696519    -2.51e-05  5.27e-05  1.24e-03  4.56e-04     0.4
    3    -183.7641307885857316    -2.43e-06  2.67e-05  5.60e-04  1.76e-04     0.4
    4    -183.7641312428247318    -4.54e-07  7.36e-06  1.41e-04  6.65e-05     0.4
    5    -183.7641312768954833    -3.41e-08  2.02e-06  6.02e-05  1.99e-05     0.4
    6    -183.7641312794767714    -2.58e-09  6.51e-07  9.41e-06  9.08e-06     0.3
                 **** Energy Check signals convergence ****

               *****************************************************
               *                     SUCCESS                       *
               *           SCF CONVERGED AFTER   6 CYCLES          *
               *****************************************************

             **** ENERGY FILE WAS UPDATED (n2o_hf_def2_TZVP.en.tmp) ****

----------------
TOTAL SCF ENERGY
----------------

Total Energy       :       -183.76413127947677 Eh           -5000.47623 eV

Components:
Nuclear Repulsion  :         62.50875800495736 Eh            1700.94978 eV
Electronic Energy  :       -246.27288928443414 Eh           -6701.42601 eV
One Electron Energy:       -373.90748200264557 Eh          -10174.53985 eV
Two Electron Energy:        127.63459271821142 Eh            3473.11384 eV

Virial components:
Potential Energy   :       -367.50135937899165 Eh          -10000.22039 eV
Kinetic Energy     :        183.73722809951491 Eh            4999.74416 eV
Virial Ratio       :          2.00014642204109

---------------
SCF CONVERGENCE
---------------

  Last Energy change         ...    2.5813e-09  Tolerance :   1.0000e-08
  Last MAX-Density change    ...    9.4107e-06  Tolerance :   1.0000e-07
  Last RMS-Density change    ...    6.5141e-07  Tolerance :   5.0000e-09
  Last DIIS Error            ...    3.1839e-03  Tolerance :   5.0000e-07
  Last Orbital Gradient      ...    9.0822e-06  Tolerance :   1.0000e-05
  Last Orbital Rotation      ...    8.1005e-06  Tolerance :   1.0000e-05


Total SCF time: 0 days 0 hours 0 min 2 sec 
Finished LeanSCF after   2.3 sec

Maximum memory used throughout the entire LEANSCF-calculation: 13.6 MB

-------------------------   --------------------
FINAL SINGLE POINT ENERGY      -183.764131279477
-------------------------   --------------------

------------------------------------------------------------------------------
                         ORCA SCF GRADIENT CALCULATION
------------------------------------------------------------------------------

Nuc. rep. gradient        (SHARK) ... done (  0.0 sec)
HCore & Overlap gradient  (SHARK) ... done (  0.0 sec)
Two-electron gradient     (SHARK) ... done (  2.7 sec)

------------------
CARTESIAN GRADIENT
------------------

   1   N   :    0.000000002   -0.000000002   -0.001635854
   2   N   :   -0.000000005    0.000000005    0.001338621
   3   O   :    0.000000002   -0.000000002    0.000297234

Difference to translation invariance:
           :   -0.0000000000   -0.0000000000    0.0000000000

Difference to rotation invariance:
           :   -0.0000000001   -0.0000000001    0.0000000000

Norm of the Cartesian gradient     ...    0.0021345427
RMS gradient                       ...    0.0007115142
MAX gradient                       ...    0.0016358544

-------
TIMINGS
-------

Total SCF gradient time     ....        2.712 sec

Densities                   ....       0.000 sec  (  0.0%)
One electron gradient       ....       0.015 sec  (  0.5%)
Two electron gradient       ....       2.698 sec  ( 99.5%)

Maximum memory used throughout the entire SCFGRAD-calculation: 27.9 MB
------------------------------------------------------------------------------
                         ORCA GEOMETRY RELAXATION STEP
------------------------------------------------------------------------------

Reading the OPT-File                    .... done
Getting information on internals        .... done
Copying old internal coords+grads       .... done
Making the new internal coordinates     .... (2022 redundants) done
Validating the new internal coordinates .... (2022 redundants) done
Calculating the B-matrix                .... done
Calculating the G,G- and P matrices     .... done
Transforming gradient to internals      .... done
Projecting the internal gradient        .... done
Number of atoms                         ....   3
Number of internal coordinates          ....   4
Current Energy                          ....  -183.764131279 Eh
Current gradient norm                   ....     0.002134543 Eh/bohr
Maximum allowed component of the step   ....  0.300
Current trust radius                    ....  0.450
Updating the Hessian (BFGS)             .... done
Forming the augmented Hessian           .... done
Diagonalizing the augmented Hessian     .... done
Last element of RFO vector              ....  0.999999557
Lowest eigenvalues of augmented Hessian:
 -0.000001564  0.544038227  0.544038227  1.097618182
Length of the computed step             ....  0.000941692
The final length of the internal step   ....  0.000941692
Converting the step to Cartesian space:
 Initial RMS(Int)=    0.0004708459
Transforming coordinates:
 Iter   0:  RMS(Cart)=    0.0002825332 RMS(Int)=    0.0004708459
done
Storing new coordinates                 .... done
The predicted energy change is          ....    -0.000000782
Previously predicted energy change      ....    -0.000070648
Actually observed energy change         ....    -0.000062403
Ratio of predicted to observed change   ....     0.883287514
New trust radius                        ....     0.675000000

                                .--------------------.
          ----------------------|Geometry convergence|-------------------------
          Item                value                   Tolerance       Converged
          ---------------------------------------------------------------------
          Energy change      -0.0000624026            0.0000050000      NO
          RMS gradient        0.0008313194            0.0001000000      NO
          MAX gradient        0.0016358544            0.0003000000      NO
          RMS step            0.0004708459            0.0020000000      YES
          MAX step            0.0009184799            0.0040000000      YES
          ........................................................
          Max(Bonds)      0.0005      Max(Angles)    0.00
          Max(Dihed)        0.00      Max(Improp)    0.00
          ---------------------------------------------------------------------

The optimization has not yet converged - more geometry cycles are needed


    ---------------------------------------------------------------------------
                         Redundant Internal Coordinates
                            (Angstroem and degrees)

        Definition                    Value    dE/dq     Step     New-Value
    ----------------------------------------------------------------------------
     1. B(N   1,N   0)                1.0818  0.001636 -0.0005    1.0813   
     2. B(O   2,N   1)                1.1681  0.000297 -0.0001    1.1680   
     3. L(N   0,N   1,O   2, 2)       180.00 -0.000000    0.00    180.00   
     4. L(N   0,N   1,O   2, 1)       180.00 -0.000000    0.00    180.00   
    ----------------------------------------------------------------------------

Geometry step timings:
Preparation and reading OPT file:      0.000 s (14.014 %)
Internal coordinates            :      0.000 s ( 4.671 %)
B/P matrices and projection     :      0.000 s (13.495 %)
Hessian update/contruction      :      0.000 s (21.799 %)
Making the step                 :      0.000 s ( 7.958 %)
Converting the step to Cartesian:      0.000 s ( 3.979 %)
Storing new data                :      0.000 s ( 4.325 %)
Checking convergence            :      0.000 s ( 2.249 %)
Final printing                  :      0.000 s (27.336 %)
Total time                      :      0.001 s

Time for energy+gradient        :      5.230 s
Time for complete geometry iter :      5.247 s

         *************************************************************
         *                GEOMETRY OPTIMIZATION CYCLE   4            *
         *************************************************************
---------------------------------
CARTESIAN COORDINATES (ANGSTROEM)
---------------------------------
  N      0.000000   -0.000000   -1.162790
  N     -0.000000    0.000000   -0.081454
  O      0.000000   -0.000000    1.086543

----------------------------
CARTESIAN COORDINATES (A.U.)
----------------------------
  NO LB      ZA    FRAG     MASS         X           Y           Z
   0 N     7.0000    0    14.007    0.000000   -0.000000   -2.197354
   1 N     7.0000    0    14.007   -0.000000    0.000000   -0.153925
   2 O     8.0000    0    15.999    0.000000   -0.000000    2.053269

--------------------------------
INTERNAL COORDINATES (ANGSTROEM)
--------------------------------
 N      0   0   0     0.000000000000     0.00000000     0.00000000
 N      1   0   0     1.081336306004     0.00000000     0.00000000
 O      2   1   0     1.167996922839   179.99999879     0.00000000

---------------------------
INTERNAL COORDINATES (A.U.)
---------------------------
 N      0   0   0     0.000000000000     0.00000000     0.00000000
 N      1   0   0     2.043429477014     0.00000000     0.00000000
 O      2   1   0     2.207194309429   179.99999879     0.00000000

------------------------------------------------------------------------------
                   ___                                                        
                  /   \      - P O W E R E D   B Y -                         
                 /     \                                                     
                 |  |  |   _    _      __       _____    __    __             
                 |  |  |  | |  | |    /  \     |  _  \  |  |  /  |          
                  \  \/   | |  | |   /    \    | | | |  |  | /  /          
                 / \  \   | |__| |  /  /\  \   | |_| |  |  |/  /          
                |  |  |   |  __  | /  /__\  \  |    /   |      \           
                |  |  |   | |  | | |   __   |  |    \   |  |\   \          
                \     /   | |  | | |  |  |  |  | |\  \  |  | \   \       
                 \___/    |_|  |_| |__|  |__|  |_| \__\ |__|  \__/        
                                                                              
                      - O R C A' S   B I G   F R I E N D -                    
                                      &                                       
                       - I N T E G R A L  F E E D E R -                       
                                                                              
 v1 FN, 2020, v2 2021, v3 2022-2024                                           
------------------------------------------------------------------------------


----------------------
SHARK INTEGRAL PACKAGE
----------------------

Number of atoms                             ...      3
Number of basis functions                   ...     93
Number of shells                            ...     33
Maximum angular momentum                    ...      3
Integral batch strategy                     ... SHARK/LIBINT Hybrid
RI-J (if used) integral strategy            ... SPLIT-RIJ (Revised 2003 algorithm where possible)
Printlevel                                  ...      1
Contraction scheme used                     ... SEGMENTED contraction
Prescreening option                         ... SCHWARTZ
   Thresh                                   ... 2.500e-11
   Tcut                                     ... 2.500e-12
   Tpresel                                  ... 2.500e-12 
Coulomb Range Separation                    ... NOT USED
Exchange Range Separation                   ... NOT USED
Multipole approximations                    ... NOT USED
Finite Nucleus Model                        ... NOT USED
CABS basis                                  ... NOT available
Auxiliary Coulomb fitting basis             ... NOT available
Auxiliary J/K fitting basis                 ... NOT available
Auxiliary Correlation fitting basis         ... NOT available
Auxiliary 'external' fitting basis          ... NOT available

Checking pre-screening integrals            ... done (  0.0 sec) Dimension = 33
Check shell pair data                       ... done (  0.0 sec)
Shell pair information
Shell pair cut-off parameter TPreSel        ...   2.5e-12
Total number of shell pairs                 ...       561
Shell pairs after pre-screening             ...       554
[...]
  0 N s       :     3.335544  s :     3.335544
      pz      :     1.361206  p :     3.422664
      px      :     1.030729
      py      :     1.030729
      dz2     :     0.075981  d :     0.185247
      dxz     :     0.054633
      dyz     :     0.054633
      dx2y2   :     0.000000
      dxy     :     0.000000
      f0      :     0.011734  f :     0.032710
      f+1     :     0.010488
      f-1     :     0.010488
      f+2     :     0.000000
      f-2     :     0.000000
      f+3     :     0.000000
      f-3     :     0.000000

  1 N s       :     2.930572  s :     2.930572
      pz      :     1.294445  p :     3.300694
      px      :     1.003125
      py      :     1.003125
      dz2     :     0.159382  d :     0.680470
      dxz     :     0.260544
      dyz     :     0.260544
      dx2y2   :     0.000000
      dxy     :     0.000000
      f0      :     0.021795  f :     0.049897
      f+1     :     0.014051
      f-1     :     0.014051
      f+2     :     0.000000
      f-2     :     0.000000
      f+3     :     0.000000
      f-3     :     0.000000

  2 O s       :     3.479788  s :     3.479788
      pz      :     1.261400  p :     4.455775
      px      :     1.597187
      py      :     1.597187
      dz2     :     0.061654  d :     0.113829
      dxz     :     0.026088
      dyz     :     0.026088
      dx2y2   :     0.000000
      dxy     :     0.000000
      f0      :     0.006501  f :     0.012810
      f+1     :     0.003155
      f-1     :     0.003155
      f+2     :     0.000000
      f-2     :     0.000000
      f+3     :     0.000000
      f-3     :     0.000000



                      *****************************
                      * MAYER POPULATION ANALYSIS *
                      *****************************

  NA   - Mulliken gross atomic population
  ZA   - Total nuclear charge
  QA   - Mulliken gross atomic charge
  VA   - Mayer's total valence
  BVA  - Mayer's bonded valence
  FA   - Mayer's free valence

  ATOM       NA         ZA         QA         VA         BVA        FA
  0 N      7.0492     7.0000    -0.0492     2.6624     2.6624     0.0000
  1 N      6.5024     7.0000     0.4976     4.0159     4.0159     0.0000
  2 O      8.4484     8.0000    -0.4484     1.8681     1.8681    -0.0000

  Mayer bond orders larger than 0.100000
B(  0-N ,  1-N ) :   2.4051 B(  0-N ,  2-O ) :   0.2573 B(  1-N ,  2-O ) :   1.6108 


-------
TIMINGS
-------

Total SCF time: 0 days 0 hours 0 min 0 sec 

Total time                  ....       0.799 sec
Sum of individual times     ....       0.796 sec  ( 99.6%)

SCF preparation             ....       0.025 sec  (  3.2%)
Fock matrix formation       ....       0.759 sec  ( 95.0%)
  Startup                   ....       0.000 sec  (  0.0% of F)
  Coulomb+Exchange Fock     ....       0.758 sec  ( 99.9% of F)
Diagonalization             ....       0.000 sec  (  0.0%)
Density matrix formation    ....       0.000 sec  (  0.1%)
Total Energy calculation    ....       0.000 sec  (  0.0%)
Population analysis         ....       0.004 sec  (  0.5%)
Orbital Transformation      ....       0.003 sec  (  0.3%)
Orbital Orthonormalization  ....       0.000 sec  (  0.0%)
DIIS solution               ....       0.002 sec  (  0.2%)
SOSCF solution              ....       0.002 sec  (  0.2%)
Finished LeanSCF after   0.8 sec

Maximum memory used throughout the entire LEANSCF-calculation: 13.7 MB

-------------------------   --------------------
FINAL SINGLE POINT ENERGY      -183.764132069793
-------------------------   --------------------

                                *** OPTIMIZATION RUN DONE ***


------------------------------------------------------------------------------
                              ORCA PROPERTY CALCULATIONS
------------------------------------------------------------------------------

GBWName                                 ... n2o_hf_def2_TZVP.gbw
Number of atoms                         ...      3
Number of basis functions               ...     93
Max core memory                         ...   1024 MB

Electric properties:
Dipole moment                           ... YES
Quadrupole moment                       ...  NO
Static polarizability (Dipole/Dipole)   ...  NO
Static polarizability (Dipole/Quad.)    ...  NO
Static polarizability (Quad./Quad.)     ...  NO
Static polarizability (Velocity)        ...  NO

Atomic electric properties:
Dipole moment                           ...  NO
Quadrupole moment                       ...  NO
Static polarizability                   ...  NO

Choice of electric origin               ... Center of mass
Position of electric origin             ...    -0.000000     0.000000    -0.001911

General magnetic properties:
Magnetizability                         ...  NO

EPR properties:
g-Tensor (aka g-matrix)                 ...  NO
Zero-Field splitting spin-orbit         ...  NO
Zero-field splitting spin-spin          ...  NO
Hyperfine couplings                     ...  NO (   0 nuclei)
Quadrupole couplings                    ...  NO (   0 nuclei)
Contact density                         ...  NO (   0 nuclei)

NMR properties:
Chemical shifts                         ...  NO (   0 nuclei)
Spin-rotation constants                 ...  NO (   0 nuclei)
Spin-spin couplings                     ...  NO (   0 nuclei,    0 pairs)

Choice of magnetic origin               ... GIAO
Position of magnetic origin             ...     0.000000     0.000000     0.000000

Properties with geometric perturbations:
SCF Hessian                             ...  NO
IR spectrum                             ...  NO
VCD spectrum                            ...  NO
X-ray spectroscopy properties:
SCF XES/XAS/RIXS spectra                ...  NO


-------------
DIPOLE MOMENT
-------------

Method             : SCF
Type of density    : Electron Density
Multiplicity       :   1
Irrep              :   0
Energy             :  -183.7641320697927370 Eh
Relativity type    : 
Basis              : AO
                                X                 Y                 Z
Electronic contribution:      0.000000003      -0.000000002      -0.274614805
Nuclear contribution   :     -0.000000000       0.000000000       0.009243710
                        -----------------------------------------
Total Dipole Moment    :      0.000000003      -0.000000002      -0.265371095
                        -----------------------------------------
Magnitude (a.u.)       :      0.265371095
Magnitude (Debye)      :      0.674519719



--------------------
Rotational spectrum 
--------------------
 
Rotational constants in cm-1:             0.000000             0.444564             0.444564 
Rotational constants in MHz :             0.000000         13327.687158         13327.687158 

Dipole components along the rotational axes: 
x,y,z [a.u.] :    -0.265371    -0.000000     0.000000 
x,y,z [Debye]:    -0.674520    -0.000000     0.000000 

 

Dipole moment calculation done in   0.0 sec 

Maximum memory used throughout the entire PROP-calculation: 4.7 MB

----------------------------------------------------------------------------
                           ORCA NUMERICAL FREQUENCIES
----------------------------------------------------------------------------

Number of atoms                ... 3
Central differences            ... used
Number of displacements        ... 18
Numerical increment            ... 5.000e-03 bohr
IR-spectrum generation         ... on
Raman-spectrum generation      ... off
Surface Crossing Hessian       ... off

The output will be reduced. Please look at the following files:
SCF program output             ... >n2o_hf_def2_TZVP.lastscf
Integral program output        ... >n2o_hf_def2_TZVP.lastint
Gradient program output        ... >n2o_hf_def2_TZVP.lastgrad
Dipole moment program output   ... >n2o_hf_def2_TZVP.lastmom

	<< Calculating gradient on displaced geometry   1 (of  18) >>
	<< Calculating gradient on displaced geometry   2 (of  18) >>
	<< Calculating gradient on displaced geometry   3 (of  18) >>
	<< Calculating gradient on displaced geometry   4 (of  18) >>
	<< Calculating gradient on displaced geometry   5 (of  18) >>
	<< Calculating gradient on displaced geometry   6 (of  18) >>
	<< Calculating gradient on displaced geometry   7 (of  18) >>
	<< Calculating gradient on displaced geometry   8 (of  18) >>
	<< Calculating gradient on displaced geometry   9 (of  18) >>
	<< Calculating gradient on displaced geometry  10 (of  18) >>
	<< Calculating gradient on displaced geometry  11 (of  18) >>
	<< Calculating gradient on displaced geometry  12 (of  18) >>
	<< Calculating gradient on displaced geometry  13 (of  18) >>
	<< Calculating gradient on displaced geometry  14 (of  18) >>
	<< Calculating gradient on displaced geometry  15 (of  18) >>
	<< Calculating gradient on displaced geometry  16 (of  18) >>
	<< Calculating gradient on displaced geometry  17 (of  18) >>
	<< Calculating gradient on displaced geometry  18 (of  18) >>

-----------------------
VIBRATIONAL FREQUENCIES
-----------------------

Scaling factor for frequencies =  1.000000000  (already applied!)

     0:       0.00 cm**-1
     1:       0.00 cm**-1
     2:       0.00 cm**-1
     3:       0.00 cm**-1
     4:       0.00 cm**-1
     5:     716.23 cm**-1
     6:     716.23 cm**-1
     7:    1386.51 cm**-1
     8:    2605.45 cm**-1


------------
NORMAL MODES
------------

These modes are the Cartesian displacements weighted by the diagonal matrix
M(i,i)=1/sqrt(m[i]) where m[i] is the mass of the displaced atom
Thus, these vectors are normalized but *not* orthogonal

                  0          1          2          3          4          5    
      0       0.000000   0.000000   0.000000   0.000000   0.000000   0.305060
      1       0.000000   0.000000   0.000000   0.000000   0.000000   0.305467
      2       0.000000   0.000000   0.000000   0.000000   0.000000  -0.000000
      3       0.000000   0.000000   0.000000   0.000000   0.000000  -0.587482
      4       0.000000   0.000000   0.000000   0.000000   0.000000  -0.588266
      5       0.000000   0.000000   0.000000   0.000000   0.000000   0.000000
      6       0.000000   0.000000   0.000000   0.000000   0.000000   0.247258
      7       0.000000   0.000000   0.000000   0.000000   0.000000   0.247588
      8       0.000000   0.000000   0.000000   0.000000   0.000000   0.000000
                  6          7          8    
      0      -0.305467   0.000000  -0.000000
      1       0.305060  -0.000000   0.000000
      2       0.000000   0.554937  -0.631176
      3       0.588266  -0.000000   0.000000
      4      -0.587482   0.000000  -0.000000
      5       0.000000   0.321455   0.766534
      6      -0.247588   0.000000   0.000000
      7       0.247258  -0.000000  -0.000000
      8      -0.000000  -0.767275  -0.118505


-----------
IR SPECTRUM
-----------

 Mode   freq       eps      Int      T**2         TX        TY        TZ
       cm**-1   L/(mol*cm) km/mol    a.u.
----------------------------------------------------------------------------
  5:    716.23   0.002867   14.49  0.001249  (-0.024975 -0.025009 -0.000000)
  6:    716.23   0.002867   14.49  0.001249  ( 0.025009 -0.024975  0.000000)
  7:   1386.51   0.037955  191.81  0.008543  (-0.000000  0.000000  0.092426)
  8:   2605.45   0.110930  560.60  0.013286  ( 0.000000 -0.000000  0.115267)

* The epsilon (eps) is given for a Dirac delta lineshape.
** The dipole moment derivative (T) already includes vibrational overlap.

The first frequency considered to be a vibration is 5
The total number of vibrations considered is 4


--------------------------
THERMOCHEMISTRY AT 298.15K
--------------------------

Temperature         ...   298.15 K
Pressure            ...     1.00 atm
Total Mass          ...    44.01 AMU
Quasi RRHO          ...     True
Cut-Off Frequency   ...     1.00 cm^-1
The molecule is recognized as being linear

Throughout the following assumptions are being made:
  (1) The electronic state is orbitally nondegenerate
  (2) There are no thermally accessible electronically excited states
  (3) Hindered rotations indicated by low frequency modes are not
      treated as such but are treated as vibrations and this may
      cause some error
  (4) All equations used are the standard statistical mechanics
      equations for an ideal gas
  (5) All vibrations are strictly harmonic

freq.     716.23  E(vib)   ...       0.07 
freq.     716.23  E(vib)   ...       0.07 
freq.    1386.51  E(vib)   ...       0.00 
freq.    2605.45  E(vib)   ...       0.00 

------------
INNER ENERGY
------------

The inner energy is: U= E(el) + E(ZPE) + E(vib) + E(rot) + E(trans)
    E(el)   - is the total energy from the electronic structure calculation
              = E(kin-el) + E(nuc-el) + E(el-el) + E(nuc-nuc)
    E(ZPE)  - the the zero temperature vibrational energy from the frequency calculation
    E(vib)  - the the finite temperature correction to E(ZPE) due to population
              of excited vibrational states
    E(rot)  - is the rotational thermal energy
    E(trans)- is the translational thermal energy

Summary of contributions to the inner energy U:
Electronic energy                ...   -183.76413207 Eh
Zero point energy                ...      0.01235775 Eh       7.75 kcal/mol
Thermal vibrational correction   ...      0.00022052 Eh       0.14 kcal/mol
Thermal rotational correction    ...      0.00094418 Eh       0.59 kcal/mol
Thermal translational correction ...      0.00141627 Eh       0.89 kcal/mol
-----------------------------------------------------------------------
Total thermal energy                   -183.74919335 Eh


Summary of corrections to the electronic energy:
(perhaps to be used in another calculation)
Total thermal correction                  0.00258097 Eh       1.62 kcal/mol
Non-thermal (ZPE) correction              0.01235775 Eh       7.75 kcal/mol
-----------------------------------------------------------------------
Total correction                          0.01493872 Eh       9.37 kcal/mol


--------
ENTHALPY
--------

The enthalpy is H = U + kB*T
                kB is Boltzmann's constant
Total thermal energy              ...   -183.74919335 Eh 
Thermal Enthalpy correction       ...      0.00094421 Eh       0.59 kcal/mol
-----------------------------------------------------------------------
Total Enthalpy                    ...   -183.74824914 Eh


Note: Rotational entropy computed according to Herzberg 
Infrared and Raman Spectra, Chapter V,1, Van Nostrand Reinhold, 1945 
Point Group:  C(inf)v, Symmetry Number:   1  
Rotational constants in cm-1:     0.000000     0.444564     0.444564 

Vibrational entropy computed according to the QRRHO of S. Grimme
Chem.Eur.J. 2012 18 9955 using a reference frequency of 100.0 cm-1


-------
ENTROPY
-------

The entropy contributions are T*S = T*(S(el)+S(vib)+S(rot)+S(trans))
     S(el)   - electronic entropy
     S(vib)  - vibrational entropy
     S(rot)  - rotational entropy
     S(trans)- translational entropy
The entropies will be listed as multiplied by the temperature to get
units of energy

Electronic entropy                ...      0.00000000 Eh      0.00 kcal/mol
Vibrational entropy               ...      0.00028245 Eh      0.18 kcal/mol
Rotational entropy                ...      0.00674567 Eh      4.23 kcal/mol
Translational entropy             ...      0.01770893 Eh     11.11 kcal/mol
-----------------------------------------------------------------------
Final entropy term                ...      0.02473705 Eh     15.52 kcal/mol


-------------------
GIBBS FREE ENERGY
-------------------

The Gibbs free energy is G = H - T*S

Total enthalpy                    ...   -183.74824914 Eh 
Total entropy correction          ...     -0.02473705 Eh    -15.52 kcal/mol
-----------------------------------------------------------------------
Final Gibbs free energy         ...   -183.77298619 Eh

For completeness - the Gibbs free energy minus the electronic energy
G-E(el)                           ...     -0.00885412 Eh     -5.56 kcal/mol



--------------------------------
SUGGESTED CITATIONS FOR THIS RUN
--------------------------------

Below you find a list of papers that are relevant to this ORCA run
We neither can nor want to force you to cite these papers, but we appreciate if you do
You receive ORCA, which is the product of decades of hard work by many enthusiastic individuals, for free
The only thing we kindly ask in return is that you cite our papers,
We deeply appreciate it, if you show your appreciation for ORCA by not just citing the generic ORCA reference.

Please note that relegating all ORCA citations to the supporting information does *not* help us.
SI sections are not indexed - citations you put there will not count into any citation statistics
But we need these citations in order to attract the funding resources that allow us to do what we are doing

Therefore, if you are a happy ORCA user, please consider citing a few of the papers listed below in the main body of your paper

In addition to the list printed below, the program has created the file n2o_hf_def2_TZVP.bibtex that contains the list in bibtex format
You can import this file easily into all common literature databanks and citation aid programs


List of essential papers. We consider these as the minimum necessary citations

  1. Neese,F.
     Software update: the ORCA program system, version 5.0
     WIRES Comput. Molec. Sci., 2022 12(1)e1606
     doi.org/10.1002/wcms.1606

List of papers to cite with high priority. The work reported in these papers was absolutely
necessary for this run to complete.
Our perspective: the developers of density functionals and basis sets usually get cited in chemistry papers
Good! But without the algorithms to do something with them, the functionals or basis sets would not do anything.
Hence, in our opinion, the algorithm design and method developments papers are equally worthy of getting cited

  1. Bykov,D.; Petrenko,T.; Izsak,R.; Kossmann,S.; Becker,U.; Valeev,E.; Neese,F.
     Efficient implementation of the analytic second derivatives of Hartree-Fock and hybrid DFT energies: a detailed analysis of different approximations
     Molec. Phys., 2015 113 1961-1977
     doi.org/10.1080/00268976.2015.1025114
  2. Neese,F.
     The SHARK Integral Generation and Digestion System
     J. Comp. Chem., 2022  1-16
     doi.org/10.1002/jcc.26942

List of suggested additional citations. These are papers that are important in the 'surrounding' of 
of this run, or papers that preceded the highly important papers. If you like your results we are grateful for a citation.

  1. Neese,F.
     The ORCA program system
     WIRES Comput. Molec. Sci., 2012 2(1)73-78
     doi.org/10.1002/wcms.81
  2. Neese,F.
     Software update: the ORCA program system, version 4.0
     WIRES Comput. Molec. Sci., 2018 8(1)1-6
     doi.org/10.1002/wcms.1327
  3. Neese,F.; Wennmohs,F.; Becker,U.; Riplinger,C.
     The ORCA quantum chemistry program package
     J. Chem. Phys., 2020 152 Art. No. L224108
     doi.org/10.1063/5.0004608

List of optional additional citations

  1. Neese,F.
     Approximate second-order SCF convergence for spin unrestricted wavefunctions
     Chem. Phys. Lett., 2000 325(1-3)93-98
     doi.org/10.1016/s0009-2614(00)00662-x

Timings for individual modules:

Sum of individual times          ...      130.763 sec (=   2.179 min)
Startup calculation              ...        0.918 sec (=   0.015 min)   0.7 %
SCF iterations                   ...       14.769 sec (=   0.246 min)  11.3 %
Property calculations            ...        0.040 sec (=   0.001 min)   0.0 %
SCF Gradient evaluation          ...       14.025 sec (=   0.234 min)  10.7 %
Geometry relaxation              ...        0.007 sec (=   0.000 min)   0.0 %
Numerical frequency calculation  ...      101.002 sec (=   1.683 min)  77.2 %
                             ****ORCA TERMINATED NORMALLY****
TOTAL RUN TIME: 0 days 0 hours 2 minutes 7 seconds 61 msec
