[Molden Format]
[Molpro variables]
_NUMVAR=  1076.000000000000    
_AVOGAD= 0.6022140760000000E+24
_BOLTZ= 0.1380649000000000E-22
_CLIGHTSI=  299792458.0000000    
_JOULE= 0.4359744722207100E-17
_JPCAL=  4.184000000000000    
_PLANCK= 0.6626070150000000E-33
_BOHR= 0.5291772109030000E-10
_ECHARG= 0.1602176634000000E-18
_ENULL= 0.8854187812800001E-11
_MU= 0.1660539066600000E-26
_EMASS= 0.9109383701500001E-30
_AMU2AU=  1822.888486217313    
_CLIGHT=  29979245800.00000    
_EV= 0.3674932217565494E-01
_KJOULE= 0.3808798847133432E-03
_KJOULE/MOL= 0.3808798847133432E-03
_CM= 0.4556335252912009E-05
_CM-1= 0.4556335252912009E-05
_DEB2SI= 0.3335640951981520E-29
_KCAL= 0.1593601437640628E-02
_KCAL/MOL= 0.1593601437640628E-02
_KELVIN= 0.3166811563455608E-05
_HERTZ= 0.1519829846057038E-15
_HZ= 0.1519829846057038E-15
_TOA= 0.5291772109030000    
_TOANG= 0.5291772109030000    
_TORAD= 0.1745329251994330E-01
_TOCM=  219474.6313631965    
_TODEBYE=  2.541746473194078    
_TOE= 0.4803204712570263E-09
_TOEV=  27.21138624598803    
_TOHERTZ=  6579683920501656.    
_TOHZ=  6579683920501656.    
_TOK=  315775.0248040668    
_TOKCAL=  627.5094740630558    
_TOKELVIN=  315775.0248040668    
_TOKJ=  2625.499639479825    
_TOKJOULE=  2625.499639479825    
_TOKG= 0.1660539066600000E-26
_ANG=  1.889726124625770    
_ANGSTROM=  1.889726124625770    
_RPAREF=  0.000000000000000    
_RPADISS=  0.000000000000000    
_IGNORE_UNDEF=  2.000000000000000    
_STRICTCHECK=  0.000000000000000    
!SEWARD=  0.000000000000000    
!MULTI=  0.000000000000000    
!DFMULTI=  0.000000000000000    
!NUMHESS=  0.000000000000000    
_SEW_ONEEL=  0.000000000000000    
_CPPDONE=FALSE
_DKROLL_DONE=  0.000000000000000    
_FNUC_DONE=  0.000000000000000    
_FOCKDONE=TRUE
_GRADONE=FALSE
_HESSDONE=TRUE
_INTDONE=TRUE
_SCFDONE=TRUE
_MODUL_BLOCK=FALSE
_MODUL_SLATER=TRUE
_MODUL_MRCC=FALSE
_MODUL_NBO6=FALSE
_MODUL_NECI=FALSE
_MODUL_AIMS=TRUE
_MODUL_HDF5=FALSE
_MODUL_GECCO=FALSE
_ISWINDOWS=FALSE
_MRCC_EXEC=
_FITC_AO_SAVED=FALSE
_FITC_MO_SAVED=FALSE
_LSTYP=SEWARD
_INTYP=INTS
_GEOMTYP=XYZ
_GRADTYP=ALASKA
_DIRECT=FALSE
_DKHO= -1.000000000000000    
_FNUC=  0.000000000000000    
_SYNCM=  0.000000000000000    
_BASIS=6-311G(D,P)
_ZCENTRE=MASS
_ZORIENT=  1.000000000000000    
_NELEC=  20.00000000000000    
!SPIN=  0.000000000000000    
_OPTCONV= 0.3299185651895828E-01
_QSDSTEP=  0.000000000000000    
_QSDIRC=  0.000000000000000    
_PROGRAM=FREQ
_CPUSTEP=  1.250000000000000    
_SYSSTEP= 0.6000000000000005E-01
_WALLSTEP=  1.320000000000000    
!DFSCF=  0.000000000000000    
!SCSGRD=  0.000000000000000    
_NCEN=  6.000000000000000    
_CPUTOT=  12.76000000000000    
_DFTEXFAC=  1.000000000000000    
_DMX=-0.8104486748969586E-01
_DMY= 0.2794797884555357E-02
_DMZ=  1.266182734278893    
_DMX_SCF=-0.8104486748969586E-01
_DMY_SCF= 0.2794797884555357E-02
_DMZ_SCF=  1.266182734278893    
_FREQUENCIES= 0.3335473013781405E-04
_HOMO=  10.10000000000000    
_EHOMO=-0.4706405850610426    
_LUMO=  11.10000000000000    
_ELUMO= 0.1334554011356413    
_ENERGY= -152.1029126776719    
_ENERGY_METHOD=HF
_ENERGY_BASIS=6-311G(D,P)
_GEOMETRY_METHOD=HF
_GEOMETRY_BASIS=6-311G(D,P)
_ENUC=  36.51034568882812    
_GRADENERG= -152.1029119736695    
_GRADEXFAC=  9999.000000000000    
_GRADMETHOD=  1.000000000000000    
_NMRMETHOD=  0.000000000000000    
_NMRMAGNET=  0.000000000000000    
_VIRIAL=-0.2556639199453422E-03
!GRID_FREEZE= -1.000000000000000    
!NEESE_INDEX=  0.000000000000000    
_ITERATIONS=  13.00000000000000    
_LASTNELEC=  20.00000000000000    
_LASTSPIN=  0.000000000000000    
_LASTSYM=  1.000000000000000    
_MPP_PROG=  1.000000000000000    
_MSNSTATES=  0.000000000000000    
_RS2PHASE=  0.000000000000000    
_NPROC_MPP=  6.000000000000000    
_NPROC_SMP=  6.000000000000000    
_NUMSTEP=  0.000000000000000    
_OPTCONVMX= 0.2990375490392862E-01
_OPTCONVRMS= 0.9523928621143036E-02
_OPTGRAD= 0.2013321662756854E-03
_OPTGRADMX= 0.1237091464486276E-03
_OPTGRADRMS= 0.5811959019789873E-04
!GMAXLAST= 0.1237091464486276E-03
!DMAXLAST= 0.2990375490392862E-01
!DELAST= 0.1660735307495997E-05
_OPTSTEP=  22.00000000000000    
_ORBITAL=  2100.200000000000    
_PI=  3.141592653589793    
_SEIG_MIN= 0.1412307758061886E-01
_SEWPROP=TRUE
_STATUS=  1.000000000000000    
_SYSTOT=  1.860000000000000    
_VERSION=  2024001.000000000    
_WALLTOT=  14.76000000000000    
_ZPE= 0.4949469395820185E-01
_DATE=14-Oct-24
_LASTORB=0
_OUTPUT=/home/lme/Theoretische_Chemie/Paper/Calc_Paper/water_dimer/h2o_dimer.out
_PGROUP=C1
_TIME=17:49:26
_LIBMOL=/usr/local/molpro/molpro_2024.1.0_sockets/lib/
_VIGRDC=  0.000000000000000    
!VIBCNT=  0.000000000000000    
!SURFREC=  0.000000000000000    
!XSURFREC=  0.000000000000000    
!XPOLYREC=  0.000000000000000    
!ROTREC=  0.000000000000000    
!POLYREC=  0.000000000000000    
!DIPREC=  0.000000000000000    
!DIP4DREC=  0.000000000000000    
!DIPROT=  0.000000000000000    
!DIP4DROT=  0.000000000000000    
!PTREC=  0.000000000000000    
!PT4DREC=  0.000000000000000    
!VSCFREC=  0.000000000000000    
!VCIREC=  0.000000000000000    
!PVCIREC=  0.000000000000000    
!VMP2REC=  0.000000000000000    
!VMCSCFREC=  0.000000000000000    
!VMRCIREC=  0.000000000000000    
!VIBSTATEREC=  0.000000000000000    
!VIBSTATECNT=  0.000000000000000    
!VIBINFO=  0.000000000000000    
!GAREC=  0.000000000000000    
!SCFORB=  21002.00000000000    
!DEFCORE=  2.000000000000000    
!SCORE=  0.000000000000000    
!NEWMOL=  0.000000000000000    
!NEWSYM=  0.000000000000000    
_SLFILES=slscratch
_NGSSTO=  9.000000000000000    
_SIN=SIN
_COS=COS
_TAN=TAN
_ACOS=ACOS
_ASIN=ASIN
_ATAN=ATAN
_COSH=COSH
_SINH=SINH
_TANH=TANH
_ABS=ABS
_MOD=MOD
_ERF=ERF
_REFC=REFC
_ERFC=ERFC
_HYPOT=HYPOT
_J0=J0
_J1=J1
_JN=JN
_GAMMA=GAMMA
_LGAMMA=LGAMMA
_Y0=Y0
_Y1=Y1
_YN=YN
_EXP=EXP
_LOG=LOG
_LOG10=LOG10
_SQRT=SQRT
_INT=INT
_NINT=NINT
_MAX=MAX
_MIN=MIN
_COSMO=  0.000000000000000    
_COSMOIT=  0.000000000000000    
_COSMOES=  0.000000000000000    
_COSMOEDS=  0.000000000000000    
_COSMOEC=  0.000000000000000    
_COSMOEDCORR=  0.000000000000000    
_FEPSI=  1.000000000000000    
_SL_IsMM=  0.000000000000000    
_SL_NSYM=  1.000000000000000    
_SL_System_BitSw=  0.000000000000000    
_SL_Unique_atoms=  0.000000000000000    
_SL_GRAD=  0.000000000000000    
_SL_MAXUPD_Hess=  5.000000000000000    
_SL_N_PRINT_COD=  5.000000000000000    
_SL_PRINT_CODES=  0.000000000000000    
_SL_BasType=  0.000000000000000    
_SL_Energy_Pred=  0.000000000000000    
_SL_New_Coords=  0.000000000000000    
_SL_Total_Nuclea=  0.000000000000000    
_SL_Highest_Mltp=  0.000000000000000    
_SL_Ref_Geom=  0.000000000000000    
_SL_Symmetry_ope=  1.000000000000000    
_SL_agrad=  0.000000000000000    
_SL_GrdMax=  0.000000000000000    
_SL_GrdNorm=  0.000000000000000    
_SL_GrdRMS=  0.000000000000000    
_SL_Hss_Q=  0.000000000000000    
_SL_Hss_X=  0.000000000000000    
_SL_BMxOld=  0.000000000000000    
_SL_KtB=  0.000000000000000    
_SL_TROld=  0.000000000000000    
_SL_No_of_Intern=  0.000000000000000    
_SL_Hess=  0.000000000000000    
_SL_K=  0.000000000000000    
!LATTICE= -1.000000000000000    
!NEWLATTICE=  0.000000000000000    
!LATGRAD_VAR=FALSE
!SEW_LATTICE=  1.000000000000000    
!AIC_ONEEL=  0.000000000000000    
!LOCAL=  0.000000000000000    
!SAVEDOM= -1.000000000000000    
!RESTDOM= -1.000000000000000    
!SAVEDOM_HF= -1.000000000000000    
!RESTDOM_HF= -1.000000000000000    
!HESSREC=  5300.200000000000    
!FREQREC=  5400.200000000000    
!NMODREC=  5450.200000000000    
!GTASKS=  0.000000000000000    
!HTASKS=  0.000000000000000    
!SAVEDOM_EOM= -1.000000000000000    
!RESTDOM_EOM= -1.000000000000000    
!GRADSTATE= -1.000000000000000    
!DEBUG=  0.000000000000000    
!CFIT_CPHF=  0.000000000000000    
!RDOMAUX_CPHF=  0.000000000000000    
!THRAO_CPHF= 0.1000000000000000E-11
!THRMO_CPHF= 0.1000000000000000E-11
!THROV_CPHF= 0.1000000000000000E-13
!THRSW_CPHF= 0.1000000000000000E-11
!THRPROD_CPHF= 0.1000000000000000E-11
!THRAOPR_CPHF= 0.1000000000000000E-11
!CFIT_SCFGRD=  0.000000000000000    
!RDOMAUX_SCFGRD=  0.000000000000000    
!THRAO_SCFGRD= 0.1000000000000000E-11
!THRMO_SCFGRD= 0.1000000000000000E-11
!THROV_SCFGRD= 0.1000000000000000E-13
!THRSW_SCFGRD= 0.1000000000000000E-11
!THRPROD_SCFGRD= 0.1000000000000000E-11
!THRAOPR_SCFGRD= 0.1000000000000000E-11
!LOCFIT_SCF=  0.000000000000000    
!LOCFIT_MP2=  0.000000000000000    
_RIDOM=  0.000000000000000    
!CC2_METHOD=  0.000000000000000    
_BASIS2006=FALSE
_SVDDEL= -1.000000000000000    
_SVDDELA= -1.000000000000000    
_SVDDELP= -1.000000000000000    
_SVDDELF= -1.000000000000000    
_SVDDELS= -1.000000000000000    
_SVDDEL_ABS= -1.000000000000000    
_SVDDELA_ABS= -1.000000000000000    
_SVDDELP_ABS= -1.000000000000000    
_SVDDELF_ABS= -1.000000000000000    
_SVDDELS_ABS= -1.000000000000000    
_MAXBASIS=  0.000000000000000    
!OPT_CONICAL=  0.000000000000000    
!CLEARSP_JGRID=  0.000000000000000    
_GRDHYBR=  0.000000000000000    
_STATEGRAD=  1.000000000000000    
_4EXT_NDISKS=  1.000000000000000    
!EMBEDFLAG=  1.000000000000000    
!EMBED=FALSE
!EMBED_F12=FALSE
!EMBEDNUC=  0.000000000000000    
_EMBEDENERGY=  0.000000000000000    
!EMBED_DFC=FALSE
!NUM_VOIDS=  0.000000000000000    
_IBODY=  0.000000000000000    
_EMBE_CORR=  0.000000000000000    
!EMBED_PROJ=FALSE
!EMB_PROJ_ZMU=  1000000.000000000    
!CORRECTION_HF=  0.000000000000000    
!EMBED_AORB=  0.000000000000000    
!EMBED_NACORR=  0.000000000000000    
!EMBED_MP2=FALSE
!EMBED_TRUNC_PERTURBATION=FALSE
!EMBED_FROZEN=  0.000000000000000    
!EMBED_ACTIVE=  0.000000000000000    
_CHANGE_BASIS=FALSE
_RESTORE_BASIS=FALSE
_FIX_EMBED_GUESS=FALSE
_EMBED_SCF=FALSE
_NEOBAS=FALSE
_NEOOVE=FALSE
_PRINEO=FALSE
_HUZINAGA_T=FALSE
_HUZINAGA_F=FALSE
_HUZINAGA=FALSE
_HUZINAGA_CORRECT=FALSE
!FASTLATGRAD=  1.000000000000000    
!FASTVLAMBDA= -1.000000000000000    
!IFORCE= -1.000000000000000    
!USESYM= -1.000000000000000    
_SINDEX=  0.000000000000000    
_AVDOM_OSV=  0.000000000000000    
_AVDOM_PNO=  0.000000000000000    
_AVDOM_PNOCC=  0.000000000000000    
_AVDOM_TNO=  0.000000000000000    
_AVDOM_TNOIT=  0.000000000000000    
_AVDOM_PAO=  0.000000000000000    
_AVDOM_LMO=  0.000000000000000    
_CC2OSV_FLAG=  0.000000000000000    
_EOMCCSD_CONV=FALSE
_TMADC2_FLAG=FALSE
_PROPADC2_FLAG=FALSE
_LEN_VirQ=  0.000000000000000    
_GRDCC2LR_FLAG=FALSE
_GRDADC2_FLAG=FALSE
_RO_VGLOBAL=  0.000000000000000    
_OPT=FALSE
_FREQ=FALSE
_HESS=FALSE
_CMRCC_callName=EMPTY
_CMRCC_callCount=  0.000000000000000    
_GECCO_CIROOT=  1.000000000000000    
_SYM_CATION=  1.000000000000000    
_MON_A=FALSE
_MON_B=FALSE
_MAXGEOM=  100.0000000000000    
!MAXGEOM=  100.0000000000000    
_NCORE=  0.000000000000000    
_NLARGECORE=  0.000000000000000    
GX1= 0.6249023762606704E-01
GY1=-0.1690999746125725E-02
GZ1= -1.529059925498652    
GX2= 0.2027218750663112E-01
GY2=-0.5881944984842366E-02
GZ2=-0.5849369718951586    
GX3=-0.8325239527823850    
GY3= 0.2519913567619450E-01
GZ3= -1.816365442337600    
GX4=-0.5501102235330456E-01
GY4= 0.1457562243997445E-02
GZ4=  1.447747336590110    
GX5= 0.3663481914425433    
GY5= 0.7448215391184116    
GZ5=  1.843652464980140    
GX6= 0.3272030304269035    
GY6=-0.7604339082016803    
GZ6=  1.848139410676115    
OX1= 0.1180894345760511    
OY1=-0.3195526396989327E-02
OZ1= -2.889504487333137    
HX2= 0.3830888233459298E-01
HY2=-0.1111526510146815E-01
HZ2= -1.105370677049771    
HX3= -1.573242262949584    
HY3= 0.4761946500529402E-01
HZ3= -3.432433228252807    
OX4=-0.1039557660834118    
OY4= 0.2754393450750132E-02
OZ4=  2.735845963811709    
HX5= 0.6922977480783772    
HY5=  1.407508720656037    
HZ5=  3.483998227803668    
HX6= 0.6183241146544404    
HY6= -1.437011822379990    
HZ6=  3.492477326305129    
[Atoms] Angs
O     1    8         0.0624902376       -0.0016909997       -1.5290599255
H     2    1         0.0202721875       -0.0058819450       -0.5849369719
H     3    1        -0.8325239528        0.0251991357       -1.8163654423
O     4    8        -0.0550110224        0.0014575622        1.4477473366
H     5    1         0.3663481914        0.7448215391        1.8436524650
H     6    1         0.3272030304       -0.7604339082        1.8481394107
[GTO]
   1 0
 s    6  1.00
  0.8588500000D+04  0.1895150083D-02
  0.1297230000D+04  0.1438590063D-01
  0.2992960000D+03  0.7073200310D-01
  0.8737710000D+02  0.2400010105D+00
  0.2567890000D+02  0.5947970261D+00
  0.3740040000D+01  0.2808020123D+00
 s    3  1.00
  0.4211750000D+02  0.1138890124D+00
  0.9628370000D+01  0.9208111006D+00
  0.2853320000D+01 -0.3274470358D-02
 s    1  1.00
  0.9056610000D+00  0.1000000000D+01
 s    1  1.00
  0.2556110000D+00  0.1000000000D+01
 p    3  1.00
  0.4211750000D+02  0.3651139738D-01
  0.9628370000D+01  0.2371529830D+00
  0.2853320000D+01  0.8197019412D+00
 p    1  1.00
  0.9056610000D+00  0.1000000000D+01
 p    1  1.00
  0.2556110000D+00  0.1000000000D+01
 d    1  1.00
  0.1292000000D+01  0.1000000000D+01
  
   2 0
 s    3  1.00
  0.3386500000D+02  0.2549381454D-01
  0.5094790000D+01  0.1903731086D+00
  0.1158790000D+01  0.8521614860D+00
 s    1  1.00
  0.3258400000D+00  0.1000000000D+01
 s    1  1.00
  0.1027410000D+00  0.1000000000D+01
 p    1  1.00
  0.7500000000D+00  0.1000000000D+01
  
   3 0
 s    3  1.00
  0.3386500000D+02  0.2549381454D-01
  0.5094790000D+01  0.1903731086D+00
  0.1158790000D+01  0.8521614860D+00
 s    1  1.00
  0.3258400000D+00  0.1000000000D+01
 s    1  1.00
  0.1027410000D+00  0.1000000000D+01
 p    1  1.00
  0.7500000000D+00  0.1000000000D+01
  
   4 0
 s    6  1.00
  0.8588500000D+04  0.1895150083D-02
  0.1297230000D+04  0.1438590063D-01
  0.2992960000D+03  0.7073200310D-01
  0.8737710000D+02  0.2400010105D+00
  0.2567890000D+02  0.5947970261D+00
  0.3740040000D+01  0.2808020123D+00
 s    3  1.00
  0.4211750000D+02  0.1138890124D+00
  0.9628370000D+01  0.9208111006D+00
  0.2853320000D+01 -0.3274470358D-02
 s    1  1.00
  0.9056610000D+00  0.1000000000D+01
 s    1  1.00
  0.2556110000D+00  0.1000000000D+01
 p    3  1.00
  0.4211750000D+02  0.3651139738D-01
  0.9628370000D+01  0.2371529830D+00
  0.2853320000D+01  0.8197019412D+00
 p    1  1.00
  0.9056610000D+00  0.1000000000D+01
 p    1  1.00
  0.2556110000D+00  0.1000000000D+01
 d    1  1.00
  0.1292000000D+01  0.1000000000D+01
  
   5 0
 s    3  1.00
  0.3386500000D+02  0.2549381454D-01
  0.5094790000D+01  0.1903731086D+00
  0.1158790000D+01  0.8521614860D+00
 s    1  1.00
  0.3258400000D+00  0.1000000000D+01
 s    1  1.00
  0.1027410000D+00  0.1000000000D+01
 p    1  1.00
  0.7500000000D+00  0.1000000000D+01
  
   6 0
 s    3  1.00
  0.3386500000D+02  0.2549381454D-01
  0.5094790000D+01  0.1903731086D+00
  0.1158790000D+01  0.8521614860D+00
 s    1  1.00
  0.3258400000D+00  0.1000000000D+01
 s    1  1.00
  0.1027410000D+00  0.1000000000D+01
 p    1  1.00
  0.7500000000D+00  0.1000000000D+01


[MO]
 Sym=      1.1
 Ene=     -20.5725
 Spin= Alpha
 Occup=    2.000000
1 -0.000020030921896
2 -0.000024475393527
3 0.000063427026312
4 -0.000234453647435
5 -0.000006204668644
6 0.000000313271978
7 -0.000010043928994
8 0.000024728858489
9 -0.000001182494816
10 0.000037131045574
11 0.000000633707635
12 0.000000856858128
13 -0.000134719391875
14 -0.000006496445021
15 0.000007099177165
16 -0.000000602732144
17 0.000000454924969
18 -0.000001735766074
19 -0.000000062109212
20 -0.000030617179082
21 0.000157614067051
22 0.000198122603991
23 -0.000003888307140
24 0.000000564446643
25 0.000030834455522
26 0.000003369088007
27 0.000051910906119
28 -0.000076621872958
29 0.000017306083072
30 -0.000000586959649
31 0.000013914588934
32 0.55142844832911
33 0.47167028125557
34 0.005610666911685
35 -0.000540718998250
36 0.001247606311110
37 -0.000029229817136
38 0.001151798629760
39 -0.000433821576979
40 0.000010094046726
41 -0.000445087748606
42 0.000052865145909
43 -0.000000782540831
44 0.000162509386012
45 0.000051812004794
46 -0.000094493171940
47 0.000042681167146
48 -0.000004561620959
49 -0.000072424795592
50 0.000002387925550
51 0.000194852443398
52 0.000123913687390
53 0.000055435087937
54 -0.000004881052559
55 -0.000068827244123
56 -0.000026866898731
57 0.000194794653929
58 0.000124446527668
59 0.000055036932298
60 -0.000001382966094
61 0.000068916236993
62 -0.000027358587897
 Sym=      2.1
 Ene=     -20.5082
 Spin= Alpha
 Occup=    2.000000
1 0.55142512410705
2 0.47167109112789
3 0.005620088658018
4 -0.000574338147181
5 -0.001441340368089
6 0.000035006309484
7 0.000923794753384
8 0.000508097372714
9 -0.000012577619007
10 -0.000289876156498
11 -0.000079079779684
12 0.000002387172223
13 -0.000026307971774
14 -0.000054605722072
15 0.000109096275630
16 -0.000054490553558
17 0.000005615536097
18 -0.000048396712574
19 0.000002499334347
20 0.000196435097643
21 0.000116869515022
22 0.000236689384522
23 -0.000029392567927
24 0.000001297800868
25 -0.000058995180731
26 0.000207664592588
27 0.000111890374308
28 0.000042644752311
29 0.000056670077440
30 -0.000001935507630
31 0.000055550445253
32 0.000020604662683
33 0.000015692326253
34 0.000018031793212
35 -0.000062911189551
36 0.000002573502406
37 -0.000000038473328
38 0.000010596526294
39 -0.000010277954723
40 0.000000210144396
41 -0.000031963802868
42 0.000004505665635
43 0.000000370133279
44 0.000087788311968
45 0.000002794254083
46 -0.000002097381105
47 -0.000000696872978
48 -0.000000108236221
49 0.000000764633371
50 0.000000020636851
51 -0.000003879433994
52 0.000022713223827
53 -0.000035390752074
54 -0.000000589469781
55 -0.000000794779680
56 -0.000011709655112
57 -0.000004015139377
58 0.000023509734165
59 -0.000035990256143
60 -0.000000643885871
61 0.000000830646703
62 -0.000011814391840
 Sym=      3.1
 Ene=      -1.3786
 Spin= Alpha
 Occup=    2.000000
1 -0.006522047855531
2 -0.010840735744053
3 0.030077411702042
4 0.022613851479041
5 -0.001574184354467
6 0.000034226510771
7 0.002459868541889
8 -0.002946747383532
9 0.000071236049862
10 0.003062887007395
11 -0.000903827645957
12 0.000019059716066
13 0.003268244572845
14 0.000152099615528
15 -0.000601895867349
16 0.000449796251821
17 -0.000025162162407
18 0.000033567286621
19 -0.000005276730113
20 0.008543380679119
21 0.006507228859310
22 -0.001460942617783
23 -0.000037143205301
24 0.000007429610768
25 -0.001710386552068
26 0.005215541493398
27 0.003050079152300
28 0.001621300073724
29 0.001185299170943
30 -0.000036538439300
31 0.000422200894433
32 -0.11342293519889
33 -0.18947690906424
34 0.53804565511710
35 0.37615599045313
36 0.026641955567377
37 -0.000620543732964
38 0.025069219239609
39 0.044521629204766
40 -0.001037164716018
41 0.041878509944715
42 0.015137244172995
43 -0.000385297707152
44 0.009467811614486
45 -0.003036065927853
46 0.005662527087244
47 -0.002626461159391
48 0.000278726907522
49 0.006190747305625
50 -0.000189175778443
51 0.095534666731186
52 0.078529705030333
53 -0.002866181611068
54 -0.010841536447371
55 -0.023492640850723
56 -0.009553986124107
57 0.095539750939827
58 0.078515526026120
59 -0.002851922591469
60 -0.009603979254932
61 0.023965028390910
62 -0.009695913070716
 Sym=      4.1
 Ene=      -1.3175
 Spin= Alpha
 Occup=    2.000000
1 -0.11316134119010
2 -0.18896819246853
3 0.53522292726077
4 0.37947031998654
5 -0.031085647233880
6 0.000756057417177
7 0.021187486244676
8 -0.052094796659849
9 0.001274062200064
10 0.034868032240665
11 -0.016114500764554
12 0.000367045764576
13 0.014036405609406
14 0.003782585099631
15 -0.008324399318191
16 0.004541814218560
17 -0.000403295256908
18 0.001603466629113
19 -0.000129787020900
20 0.094052287053839
21 0.075048600407434
22 -0.008495493245429
23 -0.001335572190278
24 0.000180511517892
25 -0.027870886005017
26 0.097083823567302
27 0.081135971165369
28 0.000491476003470
29 0.025150300358962
30 -0.000771166054091
31 0.010844669587761
32 0.007343421229609
33 0.012305146739569
34 -0.035417439551149
35 -0.022595035895153
36 -0.001972649959018
37 0.000042253828211
38 -0.004068401195668
39 -0.003042844042631
40 0.000069106347184
41 -0.004890366236259
42 -0.001054641005638
43 0.000003755434913
44 -0.006007419721973
45 0.000185808285106
46 -0.000354486031195
47 0.000168677746089
48 -0.000018564496352
49 -0.000517977015922
50 0.000013293561852
51 -0.006783004778616
52 -0.006946806376160
53 0.002121905490749
54 0.000777160732496
55 0.001763525100572
56 0.000848029101978
57 -0.006782911932895
58 -0.006975234496109
59 0.002128232039604
60 0.000687739539532
61 -0.001799854746195
62 0.000864133134246
 Sym=      5.1
 Ene=      -0.7471
 Spin= Alpha
 Occup=    2.000000
1 0.000005967672371
2 0.000010550935408
3 -0.000041969198163
4 0.000042991708693
5 0.000062705070023
6 0.001637511810621
7 0.000046304490140
8 0.000077863957263
9 0.002032625514376
10 0.000063889422032
11 0.000092569987985
12 0.003137100077751
13 0.000096056318849
14 -0.000008443489742
15 0.000001589332614
16 0.000006854157127
17 -0.000090812828565
18 0.000000447556151
19 0.000106564341113
20 0.000022562013290
21 -0.000003329343063
22 -0.000059701069781
23 0.000029515587111
24 0.001064387437382
25 0.000005809025024
26 -0.000024987057077
27 -0.000066349152484
28 0.000038726488704
29 -0.000009336481369
30 0.000047980261407
31 -0.000003325165665
32 -0.000003444248441
33 -0.000005901245811
34 0.000018523473140
35 0.000039795430269
36 0.005953045368674
37 0.22877036410743
38 -0.000680268302433
39 0.009148142335157
40 0.35148355571153
41 -0.001041968275714
42 0.005683705441701
43 0.21816743282129
44 -0.000645683436647
45 0.000942915387676
46 -0.000840836805651
47 -0.000102078582025
48 0.020899687044228
49 0.000453449856354
50 0.019804774149270
51 0.15074685402793
52 0.20548265161859
53 0.049004958909164
54 -0.018273099396035
55 -0.018501351602362
56 -0.017859042570994
57 -0.15074280418322
58 -0.20552815147524
59 -0.049007135267302
60 0.017292021312939
61 -0.019317701582174
62 0.017981163751385
 Sym=      6.1
 Ene=      -0.6906
 Spin= Alpha
 Occup=    2.000000
1 0.000595605705726
2 0.001001060771267
3 -0.002724879886334
4 -0.001217032658376
5 0.12128001448556
6 -0.004441716888456
7 0.18393550329958
8 0.18626632475931
9 -0.006817074374895
10 0.28161757036791
11 0.11218382494392
12 -0.004130243850544
13 0.17665589946625
14 -0.022455672266494
15 -0.000041457994646
16 0.022497130261141
17 0.000786426453392
18 -0.010183237444508
19 0.000140036572269
20 0.14721816201135
21 0.19637076632461
22 0.062273568742921
23 0.009744963775003
24 -0.000117720614134
25 -0.030541932130910
26 -0.14529900203357
27 -0.20398106997859
28 -0.057779260551907
29 -0.030375703740840
30 0.000858438492431
31 0.000405794831122
32 -0.004067310796547
33 -0.006951971913763
34 0.021327347009687
35 0.044351525132342
36 -0.014704846588677
37 0.000180030134269
38 -0.054228188294768
39 -0.022024469066235
40 0.000261071543905
41 -0.083339167366772
42 -0.012326986365534
43 0.000066820953638
44 -0.068526494443346
45 0.000451062642457
46 -0.000114101086190
47 -0.000336961556267
48 -0.000031328716573
49 -0.003418409356804
50 0.000083379335129
51 -0.018762149271360
52 -0.029341243138066
53 -0.004983234301307
54 0.001166152346941
55 0.006247964888523
56 -0.002937285950441
57 -0.018707307976258
58 -0.029284756621371
59 -0.004977952718484
60 0.000834885517231
61 -0.006313216993326
62 -0.002900936469829
 Sym=      7.1
 Ene=      -0.6048
 Spin= Alpha
 Occup=    2.000000
1 -0.011237946018134
2 -0.018956469889440
3 0.054357051478153
4 0.10336893260869
5 0.069864592348701
6 -0.002186956891204
7 0.015902435193583
8 0.10291570287217
9 -0.003223916735984
10 0.026454373669964
11 0.087623915906099
12 -0.002796241851760
13 0.014031330957849
14 -0.007126434345999
15 0.002480574878156
16 0.004645859467843
17 0.000320831305293
18 -0.000086577279083
19 -0.000021859025046
20 0.009617889167783
21 0.009205828236876
22 -0.036119382790628
23 0.007653077621524
24 -0.000222073499141
25 -0.004815324868398
26 -0.049509004031714
27 -0.071420120655955
28 -0.015360791609615
29 -0.008373905259451
30 0.000257135271661
31 -0.004967945407006
32 0.034910773222872
33 0.059345293031160
34 -0.17913639355996
35 -0.30448684213400
36 0.17174534906644
37 -0.003954819097357
38 0.17331063860956
39 0.25474676963246
40 -0.005857688214056
41 0.26007399168901
42 0.23144417220124
43 -0.005282542642951
44 0.23172199240133
45 0.002575244696165
46 -0.002919682300504
47 0.000344437604340
48 -0.000118504665151
49 0.015694938781815
50 -0.000399173818404
51 0.083719260054934
52 0.12816694624467
53 0.031384670529478
54 0.005153178885641
55 -0.027209221173522
56 0.006083944726650
57 0.083732409372539
58 0.12826822768349
59 0.031371136423602
60 0.006554106471201
61 0.026946095270105
62 0.005914371131570
 Sym=      8.1
 Ene=      -0.5466
 Spin= Alpha
 Occup=    2.000000
1 -0.032340252295940
2 -0.055021804823061
3 0.16684825957074
4 0.27512482348759
5 0.18061385124790
6 -0.004515107723340
7 -0.11628077382221
8 0.26814372176598
9 -0.006719495464434
10 -0.17047666844149
11 0.23895488999272
12 -0.005927358194682
13 -0.16636824774400
14 -0.009307264705597
15 0.010740513435157
16 -0.001433248729560
17 0.000604959807709
18 0.008885956401833
19 -0.000176100043346
20 -0.069133554116129
21 -0.10322288161323
22 -0.011347362846431
23 0.018637523728667
24 -0.000600364214799
25 0.014833004933825
26 -0.079517976909285
27 -0.13428757261515
28 -0.026860024445970
29 -0.008764884516014
30 0.000377512923074
31 -0.023882894705241
32 -0.009671549906438
33 -0.016514585706928
34 0.051341013552728
35 0.076382861605822
36 -0.13898019363270
37 0.003807532151059
38 0.062521096434706
39 -0.20887630755644
40 0.005722721169001
41 0.093841828649920
42 -0.20872106323650
43 0.005769717379158
44 0.11123707453077
45 -0.007096633105541
46 0.001397561637737
47 0.005699071467805
48 0.000249339463656
49 -0.002968049257440
50 0.000094207889573
51 -0.017291146574535
52 -0.030233044849289
53 -0.007158374567252
54 -0.012141373283129
55 0.006631585125532
56 0.008356427787133
57 -0.017309551936038
58 -0.030219208024272
59 -0.007246759890412
60 -0.012471518195275
61 -0.005942711574357
62 0.008394894327528
 Sym=      9.1
 Ene=      -0.5247
 Spin= Alpha
 Occup=    2.000000
1 0.015212917501421
2 0.025926767194958
3 -0.079956356670629
4 -0.13112073165695
5 -0.089267831110747
6 0.001564458993272
7 0.10246033170396
8 -0.13174563232206
9 0.002309366426379
10 0.15300089579847
11 -0.12531113880063
12 0.002101900148375
13 0.13742808997413
14 0.002378532397302
15 -0.006408079921243
16 0.004029547523941
17 -0.000228527618763
18 -0.006862654274053
19 0.000103452556923
20 0.054141664683556
21 0.094414110736807
22 -0.033185438089293
23 -0.011740938786671
24 0.000360325628750
25 -0.015309265951401
26 0.026994498135592
27 0.044316712384968
28 0.019886680559255
29 0.000589276219939
30 -0.000139378286289
31 0.016105099622153
32 0.003414902794551
33 0.005782096491225
34 -0.015776621428921
35 -0.040931692940735
36 -0.16306252055228
37 0.004806518744220
38 0.19295768504104
39 -0.24478976362251
40 0.007214438287185
41 0.29053144183531
42 -0.26794922860861
43 0.007872483694599
44 0.29825865280889
45 -0.012004017838995
46 -0.000172206066927
47 0.012176223905922
48 0.000361703309821
49 0.001988517130241
50 -0.000013978351045
51 0.007376349232147
52 0.015742170126076
53 0.009789963646336
54 -0.018453226385200
55 -0.003293518344860
56 0.019046280247901
57 0.007397323614466
58 0.015762084771603
59 0.009834866023675
60 -0.018260495898328
61 0.004363680902623
62 0.019026994623100
 Sym=     10.1
 Ene=      -0.4706
 Spin= Alpha
 Occup=    2.000000
1 0.000000731182937
2 0.000002615515894
3 -0.000040215782586
4 0.000226449055527
5 0.008147321592988
6 0.29024928752261
7 0.001768917449563
8 0.012153006375658
9 0.43358817415421
10 0.002632441401399
11 0.013237084219604
12 0.47045794387884
13 0.002961048003280
14 -0.000672780195997
15 0.000568670810355
16 0.000104109385642
17 -0.013747590423697
18 0.000179260539999
19 0.009336743571396
20 0.000036912404790
21 0.000027111210117
22 -0.000598173868340
23 0.000825005195301
24 0.029590855842774
25 0.000173544341675
26 0.000004426964071
27 -0.000026493172316
28 0.000190663235144
29 0.000875411145042
30 0.031362609601310
31 0.000185717946850
32 0.000036545349489
33 0.000063293494278
34 -0.000214920477240
35 -0.000174717613580
36 -0.000265320870059
37 -0.002852260623546
38 0.000401649571386
39 -0.000389902931053
40 -0.004125971300227
41 0.000661849747536
42 -0.000083911164570
43 0.008090309184146
44 0.000413387533763
45 -0.000008558935405
46 -0.000017394221772
47 0.000025953157177
48 0.000354866460864
49 0.000009563116589
50 -0.000007401129079
51 -0.000865943760731
52 -0.017499358668140
53 0.017213537033783
54 0.001452485646455
55 0.000846992788842
56 0.001172289868526
57 0.000982560533947
58 0.017421084176854
59 -0.016732966171699
60 -0.001467120970375
61 0.000934332775577
62 -0.001063117302879
 Sym=     11.1
 Ene=       0.1335
 Spin= Alpha
 Occup=    0.000000
1 0.011626568013711
2 0.019541336990276
3 -0.051800551504254
4 -0.17043777175830
5 0.018662690209960
6 -0.000525808290578
7 -0.021485281454266
8 0.022814621167075
9 -0.000586537380479
10 -0.039257883233116
11 0.054884185677930
12 -0.001782658917167
13 0.004570794189670
14 -0.001135872514778
15 -0.000133301397759
16 0.001269173912538
17 0.000030030364821
18 0.001545160549046
19 -0.000032274260793
20 0.010480364152049
21 -0.058144106262815
22 0.069002428438073
23 0.001638355977604
24 -0.000169383109541
25 0.009286679695604
26 0.012801666679282
27 -0.045360426132894
28 0.33282403828322
29 -0.002177453525439
30 0.000089440959548
31 -0.007165670199327
32 0.034162759406113
33 0.056164972857225
34 -0.11536380765618
35 -0.82003698172772
36 -0.047003093893159
37 0.001176369406986
38 -0.040371276546579
39 -0.074462289358788
40 0.001834997316079
41 -0.061534345796928
42 -0.13535349420261
43 0.003303456228825
44 -0.12720859155991
45 -0.000039814804135
46 -0.000967893239691
47 0.001007708043826
48 -0.000044855873678
49 -0.004598733916855
50 0.000122160673025
51 0.034360748179015
52 -0.049514593811876
53 0.78793725434079
54 -0.002066737205834
55 0.004691185658110
56 -0.000552665479351
57 0.034402223652539
58 -0.050009952960103
59 0.79015001165848